TITLE     = "TECPLOT Grid File exported by Pointwise V18.0R4 Thu Jan 17 15:08:26 2019"
VARIABLES = "X"
"Y"
"Z"
ZONE T="dom-3"
 STRANDID=0, SOLUTIONTIME=0
 Nodes=963, Elements=1770, ZONETYPE=FETriangle
 DATAPACKING=POINT
 DT=(DOUBLE DOUBLE DOUBLE )
 -1.000000000000E+00 0.000000000000E+00 0.000000000000E+00
 -9.876850207349E-01 -1.918157425268E-01 0.000000000000E+00
 -9.509422945585E-01 -3.804818758643E-01 0.000000000000E+00
 -8.903751360190E-01 -5.629005073191E-01 0.000000000000E+00
 -8.069780561851E-01 -7.360763280059E-01 0.000000000000E+00
 -7.021204328019E-01 -8.971657957368E-01 0.000000000000E+00
 -5.775240251466E-01 -1.043523825905E+00 0.000000000000E+00
 -4.352347027881E-01 -1.172747223702E+00 0.000000000000E+00
 -2.775888524658E-01 -1.282714144508E+00 0.000000000000E+00
 -1.071750146836E-01 -1.371618934524E+00 0.000000000000E+00
 7.320862005345E-02 -1.438001779555E+00 0.000000000000E+00
 2.606001574499E-01 -1.480772675122E+00 0.000000000000E+00
 4.519226336425E-01 -1.499229324301E+00 0.000000000000E+00
 6.440345388615E-01 -1.493068669424E+00 0.000000000000E+00
 8.337814009345E-01 -1.462391868273E+00 0.000000000000E+00
 1.018047581632E+00 -1.407702633075E+00 0.000000000000E+00
 1.193807435361E+00 -1.329898959560E+00 0.000000000000E+00
 1.358174990183E+00 -1.230258381895E+00 0.000000000000E+00
 1.508451335392E+00 -1.110416995613E+00 0.000000000000E+00
 1.642168937554E+00 -9.723425929617E-01 0.000000000000E+00
 1.757132157338E+00 -8.183023518158E-01 0.000000000000E+00
 1.851453301854E+00 -6.508256086763E-01 0.000000000000E+00
 1.923583620516E+00 -4.726623270354E-01 0.000000000000E+00
 1.972338735487E+00 -2.867379430521E-01 0.000000000000E+00
 1.996918089126E+00 -9.610532997107E-02 0.000000000000E+00
 1.996918089126E+00 9.610532997107E-02 0.000000000000E+00
 1.972338735487E+00 2.867379430521E-01 0.000000000000E+00
 1.923583620516E+00 4.726623270354E-01 0.000000000000E+00
 1.851453301854E+00 6.508256086763E-01 0.000000000000E+00
 1.757132157338E+00 8.183023518158E-01 0.000000000000E+00
 1.642168937554E+00 9.723425929617E-01 0.000000000000E+00
 1.508451335392E+00 1.110416995613E+00 0.000000000000E+00
 1.358174990183E+00 1.230258381895E+00 0.000000000000E+00
 1.193807435361E+00 1.329898959559E+00 0.000000000000E+00
 1.018047581632E+00 1.407702633075E+00 0.000000000000E+00
 8.337814009345E-01 1.462391868273E+00 0.000000000000E+00
 6.440345388615E-01 1.493068669424E+00 0.000000000000E+00
 4.519226336425E-01 1.499229324301E+00 0.000000000000E+00
 2.606001574499E-01 1.480772675122E+00 0.000000000000E+00
 7.320862005345E-02 1.438001779555E+00 0.000000000000E+00
 -1.071750146836E-01 1.371618934524E+00 0.000000000000E+00
 -2.775888524658E-01 1.282714144508E+00 0.000000000000E+00
 -4.352347027881E-01 1.172747223702E+00 0.000000000000E+00
 -5.775240251466E-01 1.043523825905E+00 0.000000000000E+00
 -7.021204328019E-01 8.971657957368E-01 0.000000000000E+00
 -8.069780561851E-01 7.360763280059E-01 0.000000000000E+00
 -8.903751360190E-01 5.629005073191E-01 0.000000000000E+00
 -9.509422945585E-01 3.804818758643E-01 0.000000000000E+00
 -9.876850207349E-01 1.918157425268E-01 0.000000000000E+00
 1.106160691000E-07 -8.673617380000E-19 -2.407412430000E-34
 1.035012704939E-02 1.732344241679E-02 1.060754915093E-18
 2.833892688724E-02 2.766235869646E-02 1.693830951555E-18
 4.784262421348E-02 3.487359185077E-02 2.135391631389E-18
 6.790884669342E-02 4.036006505757E-02 2.471341223958E-18
 8.825248837895E-02 4.471782466141E-02 2.738177041628E-18
 1.087581601715E-01 4.824112131650E-02 2.953916740112E-18
 1.293653799131E-01 5.111436361661E-02 3.129852089423E-18
 1.500399971889E-01 5.345582263892E-02 3.273225104471E-18
 1.707605160421E-01 5.534991123322E-02 3.389204580874E-18
 1.915127479505E-01 5.685847913874E-02 3.481577724215E-18
 2.122868132830E-01 5.802959577011E-02 3.553287935888E-18
 2.330756249872E-01 5.890161322089E-02 3.606683604711E-18
 2.538739678617E-01 5.950595713634E-02 3.643688996500E-18
 2.746779471859E-01 5.986894502246E-02 3.665915594482E-18
 2.954846126025E-01 6.001298220926E-02 3.674735328878E-18
 3.162917169300E-01 5.995741846952E-02 3.671333030681E-18
 3.370975427664E-01 5.971914722676E-02 3.656743124906E-18
 3.579007791527E-01 5.931305527711E-02 3.631877164554E-18
 3.787004306571E-01 5.875235737461E-02 3.597544320255E-18
 3.994957479522E-01 5.804885194598E-02 3.554467036552E-18
 4.202861765536E-01 5.721312013767E-02 3.503293222315E-18
 4.410713142535E-01 5.625468227899E-02 3.444605829606E-18
 4.618508791813E-01 5.518212291807E-02 3.378930510248E-18
 4.826246837965E-01 5.400319171327E-02 3.306741793886E-18
 5.033926129461E-01 5.272488572895E-02 3.228468126890E-18
 5.241546069810E-01 5.135351730882E-02 3.144496029930E-18
 5.449106464293E-01 4.989477043187E-02 3.055173545375E-18
 5.656607413670E-01 4.835374773864E-02 2.960813120258E-18
 5.864049194806E-01 4.673501076177E-02 2.861694066875E-18
 6.071432194833E-01 4.504261335601E-02 2.758064613506E-18
 6.278756814530E-01 4.328013108175E-02 2.650143699553E-18
 6.486023427627E-01 4.145068567463E-02 2.538122476635E-18
 6.693232313035E-01 3.955696703043E-02 2.422165652588E-18
 6.900383608899E-01 3.760125175459E-02 2.302412629825E-18
 7.107477270267E-01 3.558541972488E-02 2.178978518202E-18
 7.314513037282E-01 3.351096833685E-02 2.051955005362E-18
 7.521490394670E-01 3.137902555059E-02 1.921411160061E-18
 7.728408543749E-01 2.919036117557E-02 1.787394118932E-18
 7.935266368927E-01 2.694539717850E-02 1.649929720318E-18
 8.142062410093E-01 2.464421701522E-02 1.509023073824E-18
 8.348794839968E-01 2.228657402701E-02 1.364659077155E-18
 8.555461426686E-01 1.987189921774E-02 1.216802888601E-18
 8.762059522805E-01 1.739930856113E-02 1.065400376776E-18
 8.968586018588E-01 1.486760993226E-02 9.103785455294E-19
 9.175037312641E-01 1.227530944019E-02 7.516459206430E-19
 9.381409308046E-01 9.620617697124E-03 5.890929334319E-19
 9.587697342076E-01 6.901456341907E-03 4.225923209453E-19
 9.793896169731E-01 4.115463685213E-03 2.519994714628E-19
 1.000000000000E+00 1.260000000000E-03 7.715274835000E-20
 1.000000000000E+00 9.800000000000E-04 6.000769316111E-20
 1.000000000000E+00 7.000000000000E-04 4.286263797222E-20
 1.000000000000E+00 4.200000000000E-04 2.571758278333E-20
 1.000000000000E+00 1.400000000000E-04 8.572527594444E-21
 1.000000000000E+00 -1.400000000000E-04 -8.572527594444E-21
 1.000000000000E+00 -4.200000000000E-04 -2.571758278333E-20
 1.000000000000E+00 -7.000000000000E-04 -4.286263797222E-20
 1.000000000000E+00 -9.800000000000E-04 -6.000769316111E-20
 1.000000000000E+00 -1.260000000000E-03 -7.715274835000E-20
 9.793896232890E-01 -4.115462821236E-03 -2.519994185595E-19
 9.587697398199E-01 -6.901455592925E-03 -4.225922750834E-19
 9.381409362722E-01 -9.620616985150E-03 -5.890928898361E-19
 9.175037373521E-01 -1.227530866660E-02 -7.516458732744E-19
 8.968586080574E-01 -1.486760916321E-02 -9.103784984387E-19
 8.762059589306E-01 -1.739930775554E-02 -1.065400327449E-18
 8.555461501149E-01 -1.987189833733E-02 -1.216802834691E-18
 8.348794919958E-01 -2.228657310367E-02 -1.364659020616E-18
 8.142062494648E-01 -2.464421606252E-02 -1.509023015488E-18
 7.935266459946E-01 -2.694539617829E-02 -1.649929659072E-18
 7.728408642808E-01 -2.919036011417E-02 -1.787394053939E-18
 7.521490501311E-01 -3.137902443730E-02 -1.921411091892E-18
 7.314513151182E-01 -3.351096717954E-02 -2.051954934497E-18
 7.107477333961E-01 -3.558541909572E-02 -2.178978479678E-18
 6.900383671817E-01 -3.760125115128E-02 -2.302412592883E-18
 6.693232377293E-01 -3.955696643337E-02 -2.422165616029E-18
 6.486023492637E-01 -4.145068509052E-02 -2.538122440869E-18
 6.278756878715E-01 -4.328013052551E-02 -2.650143665493E-18
 6.071432257354E-01 -4.504261283498E-02 -2.758064581602E-18
 5.864049258563E-01 -4.673501025267E-02 -2.861694035701E-18
 5.656607475145E-01 -4.835374727031E-02 -2.960813091581E-18
 5.449106571495E-01 -4.989476965667E-02 -3.055173497908E-18
 5.241546156325E-01 -5.135351671871E-02 -3.144495993797E-18
 5.033926200422E-01 -5.272488527587E-02 -3.228468099147E-18
 4.826246891117E-01 -5.400319139859E-02 -3.306741774617E-18
 4.618508817233E-01 -5.518212278019E-02 -3.378930501805E-18
 4.410713200150E-01 -5.625468199708E-02 -3.444605812344E-18
 4.202861822382E-01 -5.721311989194E-02 -3.503293207269E-18
 3.994957535967E-01 -5.804885173660E-02 -3.554467023731E-18
 3.787004360883E-01 -5.875235720905E-02 -3.597544310117E-18
 3.579007845935E-01 -5.931305515013E-02 -3.631877156779E-18
 3.370975479861E-01 -5.971914714534E-02 -3.656743119921E-18
 3.162917218974E-01 -5.995741843382E-02 -3.671333028495E-18
 2.954846172679E-01 -6.001298221851E-02 -3.674735329444E-18
 2.746779514231E-01 -5.986894507339E-02 -3.665915597601E-18
 2.538739717315E-01 -5.950595722558E-02 -3.643689001964E-18
 2.330756274781E-01 -5.890161330876E-02 -3.606683610091E-18
 2.122868164495E-01 -5.802959592489E-02 -3.553287945366E-18
 1.915127498727E-01 -5.685847926212E-02 -3.481577731770E-18
 1.707605160634E-01 -5.534991123496E-02 -3.389204580980E-18
 1.500399972110E-01 -5.345582264117E-02 -3.273225104609E-18
 1.293653798853E-01 -5.111436361313E-02 -3.129852089209E-18
 1.087581600739E-01 -4.824112130146E-02 -2.953916739191E-18
 8.825248727465E-02 -4.471782445151E-02 -2.738177028775E-18
 6.790884742058E-02 -4.036006523203E-02 -2.471341234640E-18
 4.784263006724E-02 -3.487359368528E-02 -2.135391743720E-18
 2.833892622188E-02 -2.766235839811E-02 -1.693830933286E-18
 1.035013520997E-02 -1.732344908276E-02 -1.060755323266E-18
 9.916873694820E-01 -1.577177420339E-02 -2.525488794438E-07
 9.949643458016E-01 -8.750278796895E-03 -2.487064509898E-07
 1.188979741531E+00 -6.823096969774E-02 -1.106450571517E-19
 1.183651731521E+00 7.658910323643E-03 -2.703380833774E-20
 1.140220832428E+00 -2.739766045529E-02 -7.964076192755E-20
 1.021192312031E+00 -4.260337440116E-03 -1.584090564324E-07
 1.014913912354E+00 -7.315494659639E-03 -1.888495088762E-07
 1.021887091813E+00 -1.446159704167E-02 -1.498385758381E-07
 1.011011555105E+00 1.020392056507E-02 -7.620475456416E-08
 1.009105867430E+00 5.807719640645E-03 -1.047433777095E-07
 1.014161547959E+00 5.803691054958E-03 -1.167196525315E-07
 1.850184829224E+00 -1.796683167098E-01 -1.564710410904E-20
 1.868860451998E+00 -2.631937871500E-02 -7.377910829534E-21
 1.729004370230E+00 -7.137561677009E-02 -2.049729738949E-20
 1.407392132546E+00 -1.486103244613E-01 -8.634624736622E-20
 1.357533518214E+00 -2.945183028847E-01 -1.688294057932E-19
 1.523079148849E+00 -2.861384869335E-01 -8.748844324202E-20
 1.756491583346E+00 -4.130670951468E-01 -3.871812647152E-20
 1.712133342259E+00 -5.603172280824E-01 -5.024335809224E-20
 1.478803574521E+00 -9.337541125533E-01 -8.372820936630E-20
 1.603226188091E+00 -8.088472315886E-01 -6.023661267547E-20
 1.433674276060E+00 -7.340661743358E-01 -1.655409779663E-19
 8.598001497480E-01 -4.673557462010E-01 -1.118518072650E-18
 7.800123909636E-01 -5.833013463911E-01 -1.195866225142E-18
 9.385367491965E-01 -6.357898178751E-01 -8.396364386219E-19
 9.691303944508E-01 -3.872077651194E-02 -7.074782784778E-08
 9.520899279844E-01 -2.410023922592E-02 -1.781194993879E-08
 9.439530186456E-01 -4.308039125750E-02 -9.373961486266E-09
 9.308899067377E-01 -2.755581905994E-02 -3.097596709485E-09
 9.231959435612E-01 -4.311403922695E-02 -2.664852807132E-09
 8.492923948567E-01 -3.657353108090E-02 -1.880740766791E-12
 8.318827243623E-01 -3.795570300496E-02 -3.761492821546E-13
 8.179967069375E-01 -5.260051292019E-02 -1.470365252304E-18
 8.002440899743E-01 -4.190751682587E-02 -1.594841791228E-18
 8.140687630678E-01 -1.067787440907E-01 -1.480979964394E-18
 7.966269984079E-01 -1.589386566719E-01 -1.577824025177E-18
 8.481220263342E-01 -1.317970917913E-01 -1.272101611206E-18
 1.125055304885E+00 -1.073553228149E+00 -2.661148464470E-19
 1.226178870133E+00 -1.019993373698E+00 -2.259207280735E-19
 1.107202532527E+00 -9.118267222343E-01 -4.145174827538E-19
 7.431777574825E-01 -4.539972995379E-02 -1.966957611620E-18
 7.607986175830E-01 -4.664183305298E-02 -1.853758234285E-18
 7.304820978023E-01 -8.058718787308E-02 -2.019213566698E-18
 7.524725937606E-01 -1.036537346995E-01 -1.864225877672E-18
 7.572453153500E-01 -7.949799954905E-02 -1.853325940808E-18
 7.008904044997E-01 -5.234262017284E-02 -2.222325882391E-18
 1.133797391721E+00 -4.436646584520E-01 -4.911989653536E-19
 1.079312231173E+00 -2.996563831035E-01 -2.162511468920E-12
 9.879263484360E-01 -3.843829135905E-01 -7.798286781692E-19
 6.625170170844E-01 -5.930719781026E-02 -2.433423119361E-18
 6.864443162565E-01 -7.021734939401E-02 -2.284054751371E-18
 6.819857321821E-01 -5.195902309003E-02 -2.333937560401E-18
 6.632402688422E-01 -1.273775332382E-01 -2.321584907457E-18
 6.450361158407E-01 -9.359439387015E-02 -2.474028836692E-18
 6.262712217680E-01 -1.171766203101E-01 -2.524587206638E-18
 6.391298051346E-01 -5.814716907447E-02 -2.563796638347E-18
 6.214844165335E-01 -5.757876074603E-02 -2.661920839730E-18
 6.275125493337E-01 -7.355938875872E-02 -2.599682503264E-18
 9.284449304860E-01 -9.243011351747E-01 -6.059172537272E-19
 9.752946580335E-01 -1.071758433898E+00 -3.947092626635E-19
 1.088816846461E+00 -1.210236062913E+00 -1.702300725759E-19
 6.476549896623E-01 -7.256305632530E-02 -2.493366561676E-18
 5.700286388852E-01 -2.091393185405E-01 -2.542291143756E-18
 6.227729049162E-01 -2.486866464357E-01 -2.237436344658E-18
 6.220417309314E-01 -1.902188310436E-01 -2.381145300192E-18
 5.287306600299E-01 -6.449896473291E-02 -3.089478574882E-18
 5.199225751372E-01 -8.223914185753E-02 -3.081805356734E-18
 5.423677182559E-01 -7.386742992990E-02 -3.006167334796E-18
 5.143964937347E-01 -6.420042536478E-02 -3.151523933028E-18
 4.963639013079E-01 -9.152850495899E-02 -3.155495165814E-18
 4.878309869727E-01 -1.158291938574E-01 -3.121115907172E-18
 5.165739766531E-01 -1.125775500494E-01 -3.022717593918E-18
 4.766599388879E-01 -7.442084668228E-02 -3.272064193155E-18
 4.761322232275E-01 -9.439792085321E-02 -3.223276072635E-18
 4.265815160994E-01 -7.410414864952E-02 -3.433718535188E-18
 4.459532239538E-01 -8.102694778397E-02 -3.360380346614E-18
 7.543290419277E-01 -1.306366719599E+00 -2.390548916075E-19
 6.309631931001E-01 -1.377603023864E+00 -1.720464123332E-19
 4.107018294258E-01 -8.608631795064E-02 -3.435007679025E-18
 4.302354249770E-01 -9.532751054537E-02 -3.368489237523E-18
 3.949008280758E-01 -7.353790608976E-02 -3.511394740208E-18
 3.794488457308E-01 -7.731172322939E-02 -3.526577458419E-18
 3.664470442255E-01 -7.247202282526E-02 -3.564736464933E-18
 3.152318235003E-01 -8.053304971109E-02 -3.571738366896E-18
 3.293581925949E-01 -7.414671082932E-02 -3.598031789635E-18
 3.184960404173E-01 -1.251084983224E+00 -3.864427892111E-19
 2.269024287140E-01 -1.355336134909E+00 -1.918399315667E-19
 3.476931970233E-01 -1.373493312026E+00 -1.985623242072E-19
 3.024545354482E-01 -7.258976799853E-02 -3.609994283382E-18
 2.650717627198E-01 -7.466574885180E-02 -3.573941304683E-18
 2.518555567002E-01 -1.073492338153E-01 -3.380705067108E-18
 2.314560600773E-01 -1.285066579851E-01 -3.234865954277E-18
 2.682339859526E-01 -1.262941746289E-01 -3.319304546775E-18
 2.743891488320E-01 -9.653945072976E-02 -3.468245024006E-18
 2.854139996043E-01 -7.514283109750E-02 -3.591641887424E-18
 4.718040014665E-01 -1.309954649403E+00 -2.948613876257E-19
 2.477016349917E-01 -7.177740081255E-02 -3.562179133725E-18
 2.512520115089E-01 -8.764901401476E-02 -3.481901223969E-18
 2.014240897436E-01 -7.388898030852E-02 -3.427910740268E-18
 2.168819063459E-01 -8.652227382077E-02 -3.409786406968E-18
 2.195426293680E-01 -7.123762032932E-02 -3.498509920164E-18
 1.627128134421E-01 -7.318682744224E-02 -3.242729496730E-18
 1.346133819186E-01 -1.239964754759E+00 -3.525124815510E-19
 1.222761743033E-01 -8.553762383396E-02 -2.888213192286E-18
 1.430944416197E-01 -8.294164040954E-02 -3.056541494807E-18
 1.307131226096E-01 -7.086803476087E-02 -3.030691641401E-18
 1.234864640012E-01 -1.315764336425E-01 -2.709264446433E-18
 1.540906947586E-01 -1.659711584303E-01 -2.787258158017E-18
 1.599828090394E-01 -1.238739483326E-01 -2.973957423163E-18
 1.437321172091E-01 -6.665906941475E-02 -3.155250654353E-18
 3.332180585001E-01 -5.699425965207E-01 -1.822757353443E-18
 2.184290089511E-01 -6.937260810310E-01 -1.470902316535E-18
 3.717014918050E-01 -7.398045371145E-01 -1.385077937643E-18
 1.786656934992E-02 -6.276409501493E-01 -1.351929808801E-18
 1.717931505220E-01 -5.387265942979E-01 -1.755779148483E-18
 6.100778320732E-02 -7.678368499980E-02 -2.306814708434E-18
 8.308654791798E-02 -6.914935326132E-02 -2.611965915767E-18
 7.041645866690E-02 -5.717681373978E-02 -2.467835184188E-18
 -3.551691979216E-02 -1.182723297583E+00 -3.531253877072E-19
 1.628251687406E-02 -1.308077191605E+00 -1.764094673146E-19
 4.778922867975E-02 -1.060924523788E-01 -2.130471550730E-18
 1.815467063890E-02 -9.595920736175E-02 -1.803191827635E-18
 6.990310246565E-03 -1.241591453193E-01 -1.761029903799E-18
 3.513457026497E-02 -7.790944043101E-02 -1.966145839302E-18
 -2.297010476054E-01 -1.142240401870E+00 -2.393918937189E-19
 2.356395532635E-02 -5.714738969813E-02 -1.729649849049E-18
 1.164754293445E-02 -3.701592486674E-02 -1.388063017938E-18
 2.872493844238E-03 -5.475942166151E-02 -1.401289646202E-18
 -1.044187442569E-02 -1.694661968130E-01 -1.701157089108E-18
 -4.834917345406E-02 -1.214794740054E-01 -1.312769963318E-18
 -7.671446004753E-02 -1.768940378149E-01 -1.312751249894E-18
 -3.662493444504E-01 -2.992832733258E-01 -6.413353721074E-19
 -5.071807411059E-01 -3.125242914204E-01 -4.388142368794E-19
 -4.399396876559E-01 -4.278033249780E-01 -5.903696409812E-19
 -5.216969601569E-01 -8.543750282495E-01 -2.553382742391E-19
 -6.483652603086E-01 -7.510855949062E-01 -1.737005713684E-19
 -4.830707385786E-01 -1.565312618642E-01 -2.980410792586E-19
 -6.216596977091E-01 -2.648274478793E-01 -2.693638538004E-19
 -6.856249038904E-01 -5.888481726837E-01 -2.132386562656E-19
 -4.264250089429E-01 3.063832853749E-01 4.581255484815E-19
 -5.178905523862E-01 1.286403413724E-01 1.385375706354E-19
 -3.432054493475E-01 1.104566618919E-01 2.021942684266E-19
 -7.932139565221E-01 -4.435520925394E-01 -1.321458568577E-19
 -6.826001503537E-01 1.327042952094E-01 7.823635390172E-20
 -7.390749848149E-01 2.755451818698E-01 1.339262305525E-19
 -8.434972730750E-01 1.476273958905E-01 4.234237439711E-20
 -6.328283927255E-01 4.222023935779E-01 2.946589872691E-19
 -6.024946282710E-01 2.517971481657E-01 2.227725971386E-19
 -7.827025503939E-01 -3.836985415919E-03 -2.429046808670E-20
 -6.167671670612E-01 7.588602839572E-01 2.368611393949E-19
 -4.626931736387E-01 6.837584683875E-01 5.128566613269E-19
 -4.785739668537E-01 8.714893635999E-01 3.359643340759E-19
 -2.720248037147E-01 7.699249330320E-01 7.279586720180E-19
 -2.947396676023E-01 9.462027985957E-01 5.009895872047E-19
 3.657984082931E-03 8.062196960385E-02 1.495940128374E-18
 3.013691883779E-02 7.660387290217E-02 1.850901502161E-18
 2.487024151017E-02 1.052594008783E-01 1.867175339553E-18
 -1.443104582852E-01 1.794092987870E-01 8.663097019531E-19
 -8.553488413382E-02 1.471622127599E-01 1.023049407666E-18
 -7.042403159135E-02 2.037756235987E-01 1.278782592161E-18
 5.269820102062E-02 6.866385805128E-02 2.199724624409E-18
 5.183307666991E-02 4.924649552268E-02 2.194548386096E-18
 7.124644754047E-02 5.723216938149E-02 2.470486012826E-18
 -6.229721477528E-01 6.111865155758E-01 2.979479048225E-19
 6.177450354853E-02 2.421094965826E-01 2.118730176018E-18
 1.239632913618E-01 3.068087514943E-01 2.267603921295E-18
 3.739312015296E-02 3.261497994273E-01 1.861602966652E-18
 1.757361136704E-01 6.962960488620E-02 3.333232699087E-18
 1.580817658676E-01 7.057133009964E-02 3.233501113828E-18
 -4.187296681311E-01 1.021271024889E+00 2.329023716539E-19
 -3.025013575863E-01 1.077856449181E+00 2.911775307602E-19
 2.180785004998E-01 7.167085898537E-02 3.493331555793E-18
 2.041103105396E-01 7.045554870958E-02 3.454238543629E-18
 2.098892671208E-01 8.976030880581E-02 3.369717433019E-18
 1.856995201877E-01 1.038438106748E-01 3.200303163526E-18
 1.894519533417E-01 7.935013721160E-02 3.344554695755E-18
 2.320198337287E-01 1.048993123602E-01 3.364948315092E-18
 2.310304865680E-01 8.120722842048E-02 3.482730261719E-18
 2.509185106074E-01 8.963554582242E-02 3.479673505533E-18
 -2.240474105972E-01 1.191231248349E+00 2.130347245685E-19
 2.648676486214E-01 7.504067385088E-02 3.581530286519E-18
 2.080255948483E-01 1.198005929993E-01 3.215857425616E-18
 2.462182430391E-01 7.295250241483E-02 3.559756452859E-18
 4.844654836390E-02 1.142224249971E+00 4.920079884444E-19
 -1.397553388129E-01 1.057829950367E+00 5.089609703738E-19
 5.601737721831E-02 9.395975466921E-01 8.526110196871E-19
 3.307358519407E-01 7.357728778120E-02 3.594970875739E-18
 3.157144035746E-01 8.187061466049E-02 3.563154839800E-18
 3.682529023153E-01 7.630043858316E-02 3.536017470336E-18
 3.485823887287E-01 7.630522628423E-02 3.564691193726E-18
 3.743410286550E-01 1.194249379271E-01 3.339725865327E-18
 3.933639120159E-01 1.540620881155E-01 3.180748807658E-18
 3.519850960797E-01 1.512725098553E-01 3.231613452369E-18
 4.214095282175E-01 6.893978950197E-02 3.454533301630E-18
 4.065705116444E-01 7.735631863844E-02 3.457731017591E-18
 4.262000972807E-01 1.105601697574E-01 3.287480450453E-18
 3.999093415768E-01 9.831264103064E-02 3.385927602039E-18
 4.227773530762E-01 8.758464491282E-02 3.380895007060E-18
 4.563340820072E-01 4.159279517591E-01 2.216229838911E-18
 5.232688901085E-01 6.075807099592E-01 1.663684579435E-18
 3.499969046486E-01 5.527535241615E-01 1.905456902296E-18
 4.910012776209E-02 1.298176573887E+00 2.290434058342E-19
 1.971630867546E-01 1.245263796904E+00 3.712669118221E-19
 1.823727697966E-01 1.367365565370E+00 1.675834924081E-19
 2.459796597422E-01 9.605073559123E-01 9.092648061295E-19
 2.131916277091E-01 1.091459174232E+00 6.460304517421E-19
 4.547586062683E-01 7.319744067406E-02 3.341186723069E-18
 4.373623858580E-01 7.556893070538E-02 3.385126585228E-18
 5.167741282072E-01 6.627080947032E-02 3.137200648779E-18
 4.952765280734E-01 7.008756300459E-02 3.211793310853E-18
 4.347495686163E-01 1.426768052926E-01 3.160472173973E-18
 4.057127896290E-01 1.250073284247E-01 3.270870979890E-18
 7.121996701917E-01 1.313395364322E+00 2.497128892819E-19
 5.123412060422E-01 1.336214349795E+00 2.547192151588E-19
 5.610782104758E-01 1.141507465575E+00 5.646596243964E-19
 5.796777735578E-01 6.237295475319E-02 2.862156479621E-18
 5.315038194130E-01 9.984214877794E-02 2.996289584504E-18
 5.110068136503E-01 8.566142440443E-02 3.112312940261E-18
 5.318728283507E-01 7.754362457579E-02 3.045857660995E-18
 5.725154742975E-01 7.794505109276E-02 2.863518188694E-18
 5.604577412303E-01 6.474080875959E-02 2.948672414170E-18
 6.487801586791E-01 5.797594866718E-02 2.506556356003E-18
 6.803595377525E-01 5.428426425113E-02 2.331476028028E-18
 6.691002025118E-01 6.786704557294E-02 2.373328971381E-18
 6.631321725867E-01 5.203660887107E-02 2.435454418788E-18
 6.848189975050E-01 1.269540455130E-01 2.188003792285E-18
 6.482301655963E-01 1.314347835886E-01 2.378590102449E-18
 6.535294012374E-01 1.041063464713E-01 2.397483101813E-18
 7.185539604082E-01 1.687725905190E-01 1.935749808187E-18
 6.935961674134E-01 2.382702436787E-01 1.959370815019E-18
 6.634848686014E-01 1.703946487820E-01 2.225849316225E-18
 7.149767143177E-01 6.128714373744E-02 2.113271382896E-18
 6.979165486247E-01 5.281491635430E-02 2.229495055918E-18
 6.945864720227E-01 7.371414033165E-02 2.215592048261E-18
 7.215288542894E-01 8.498234899349E-02 2.038607557184E-18
 7.017375183653E-01 9.912449982439E-02 2.133394668414E-18
 7.880780189009E-01 4.406682467592E-02 1.668996527909E-18
 8.301027155198E-01 1.441434844550E-01 1.315303057213E-18
 7.749132262453E-01 1.495897420143E-01 1.638003707947E-18
 8.045228759773E-01 1.094787017354E-01 1.498853265051E-18
 8.086997825791E-01 4.166829408842E-02 1.531740162537E-18
 8.822550585727E-01 1.310145666465E+00 1.981148630335E-19
 7.319858330902E-01 1.175174329143E-01 1.930017085039E-18
 8.470534627271E-01 3.533430717782E-02 1.267713673891E-18
 8.395310465033E-01 4.930908183584E-02 1.311943461325E-18
 8.285337656078E-01 3.807388814049E-02 1.397230681649E-18
 8.672571965159E-01 3.300254257947E-02 1.123567961820E-18
 9.008578238294E-01 3.604319407847E-02 8.769541670707E-19
 8.849938100005E-01 3.034968954807E-02 9.946289066126E-19
 6.196037992149E-01 4.260751209944E-01 1.847697797093E-18
 7.044082187593E-01 5.930883896513E-01 1.344838247427E-18
 1.306083856133E+00 1.019739942599E+00 1.593491392979E-19
 1.184193078829E+00 9.020642811873E-01 3.232309035064E-19
 1.300755302551E+00 8.204521034312E-01 2.387396664083E-19
 9.125455891549E-01 2.644244887125E-02 7.927037740456E-19
 9.292590219126E-01 2.746893865688E-02 6.696718034651E-19
 9.248099819115E-01 8.719011615272E-02 7.205649887983E-19
 9.254910760054E-01 1.196645594351E-01 7.425519485523E-19
 9.012524149475E-01 1.006366361628E-01 8.813091727262E-19
 1.604975642175E+00 7.931482263379E-01 5.469613826047E-20
 1.010085667228E+00 1.365383982537E-03 -1.505206340395E-07
 1.015456048651E+00 -6.721952588697E-04 -1.715560028392E-07
 1.472350562150E+00 9.134806756744E-01 9.128424374425E-20
 1.707285667808E+00 6.837768302704E-01 3.042411922189E-20
 1.773712251992E+00 1.289804542614E-01 1.159857094393E-21
 1.604149870003E+00 4.478025086236E-02 -9.560694819135E-21
 1.719066382916E+00 5.096483034244E-01 3.408213890371E-20
 1.666198916395E+00 3.192429519929E-01 3.263795797011E-20
 1.824628479048E+00 3.203729456482E-01 1.159798085114E-20
 1.001860172922E+00 -6.437632672357E-03 -1.880972552461E-07
 1.001435526367E+00 -2.407652370012E-03 -7.914772231320E-08
 1.892870966981E+00 2.049656941227E-01 1.707931138644E-21
 6.237067429913E-01 -1.220231033952E+00 -4.109025957712E-19
 -3.938242879272E-01 -1.058613620052E+00 -1.813853359365E-19
 -4.335536794739E-01 -9.606295753147E-01 -2.528155428677E-19
 4.833386330455E-02 -5.526767509877E-02 -2.129632651308E-18
 8.685118776873E-01 -3.503796065024E-02 -1.128443816934E-11
 1.306174294191E+00 -9.024292457946E-01 -2.236909686248E-19
 1.225631014268E+00 -7.542913995477E-01 -3.589969485623E-19
 8.013648536668E-01 -9.916313889997E-01 -6.459178199029E-19
 8.027175625523E-01 -8.525288384792E-01 -8.410931555092E-19
 6.786803343105E-01 -9.018403593886E-01 -9.071461473242E-19
 1.227783617271E+00 -1.153951548001E+00 -1.251966861682E-19
 -3.134186371216E-01 -6.014468311480E-01 -7.943579929946E-19
 -5.183268383225E-01 -5.391505179998E-01 -4.654120342601E-19
 1.296125451477E+00 -4.556810451901E-01 -2.815740583308E-19
 1.402359800499E+00 -5.607097882353E-01 -2.036119586515E-19
 1.456170374346E+00 -4.338875786758E-01 -1.510579917606E-19
 -6.009235370714E-01 -9.310577729870E-03 -5.413205030355E-20
 9.190424394971E-02 6.218382520265E-02 2.719994025581E-18
 1.453601094841E+00 -2.110607639370E-03 -2.509561471241E-20
 1.347612941948E+00 9.714041043856E-02 2.486421874636E-20
 1.294488542578E+00 -2.873484784849E-02 -4.912515514045E-20
 6.332352586462E-01 6.726852572150E-02 2.577335963645E-18
 8.143486756748E-01 1.139138563288E+00 4.470303081774E-19
 1.005587806972E+00 2.691889281767E-03 -9.120022417301E-08
 1.005044768766E+00 9.318126488211E-03 -5.421069573270E-08
 1.012605197511E+00 1.230991928499E+00 2.020768512579E-19
 2.004769104333E-01 4.949567139495E-01 1.901529959959E-18
 2.008425858501E-02 5.785863821904E-01 1.436819646321E-18
 9.242974474042E-02 4.097927509741E-01 1.900213164440E-18
 3.676411880842E-01 8.946859157491E-01 1.076654937174E-18
 3.726678341789E-01 1.048219113018E+00 7.695075188846E-19
 9.886134764598E-01 1.042853359712E+00 4.074935216494E-19
 1.166959396231E+00 1.143839907367E+00 1.778197911454E-19
 8.384239808001E-01 9.626305726635E-01 6.448268757036E-19
 8.783184231601E-01 8.512185418613E-01 7.229234131745E-19
 9.308194379697E-01 9.349097189948E-01 5.712137913725E-19
 8.179480661465E-01 7.848357599986E-02 1.437582864096E-18
 8.459719545702E-01 9.930226268248E-02 1.241170024716E-18
 1.040169720663E+00 6.755068235218E-01 6.029367396458E-19
 1.147991359636E+00 7.923931323831E-01 4.056755203045E-19
 1.027343777103E+00 8.686100810326E-01 5.132793875192E-19
 1.354593962316E-01 2.341029591992E-01 2.471609633736E-18
 1.731961754944E-01 1.828064095329E-01 2.804219565796E-18
 2.062612223337E-01 2.557949395451E-01 2.651529323197E-18
 3.638054666382E-01 7.295854611471E-01 1.459455069537E-18
 2.203802715205E-01 8.285750298709E-01 1.201520103159E-18
 2.076342145726E-01 6.570557221544E-01 1.526035335710E-18
 7.824404492661E-01 -8.686872587270E-02 -1.687835102514E-18
 7.702193690099E-01 -6.343512267290E-02 -1.780784434282E-18
 1.069030917877E+00 -7.431126590671E-01 -5.672829920650E-19
 9.391306103699E-01 -7.987274373500E-01 -7.180345871639E-19
 6.494415460038E-01 -6.257367439314E-01 -1.372655028950E-18
 5.090726140254E-01 -5.264067959929E-01 -1.772588165554E-18
 5.002033082014E-01 -6.831813599787E-01 -1.479948400077E-18
 9.912066017732E-02 -6.191615810303E-02 -2.794693337852E-18
 -2.897760298675E-01 -1.750361064927E-01 -5.837553023947E-19
 -1.960417071573E-01 -2.963946456447E-01 -1.021714190823E-18
 -1.613898211985E-01 -1.704992784097E-01 -9.088466276810E-19
 -8.511129155740E-01 -1.247101783550E-01 -6.049816074329E-20
 1.538644925441E+00 -5.705163235291E-01 -1.137023423455E-19
 1.597668847413E+00 -6.780056996442E-01 -8.511332277706E-20
 -2.856629734196E-01 -4.151049549035E-01 -8.878319058027E-19
 -1.303543850327E-01 -4.672177704610E-01 -1.231729417419E-18
 -5.917829603616E-02 -3.228550269532E-01 -1.487848167512E-18
 -1.055342504769E-01 -2.395279098813E-01 -1.293984946846E-18
 1.230128046001E+00 7.736239168470E-02 2.871585198782E-20
 9.835302844490E-01 -2.397007066631E-02 -2.707394152182E-07
 9.687768492021E-01 -2.010370212823E-02 -5.559471416776E-08
 -8.058217288382E-01 4.155776381034E-01 1.068674798359E-19
 -7.498542040491E-01 5.548990078707E-01 1.431674721683E-19
 -4.453408533677E-01 5.021629741806E-01 5.488685358694E-19
 -3.042924575213E-01 4.799620986947E-01 8.026302811028E-19
 -3.030124000151E-01 5.969505800776E-01 8.025387964184E-19
 3.303674683169E-01 1.357967030298E+00 2.151502995741E-19
 6.596113527434E-01 9.503298695740E-01 8.473395850370E-19