TTILE = "Vizualisation of the partitioned mesh"
VARIABLES="X","Y","Z","FLAGNODE","FLAGCELL"
ZONE T="element0"
Nodes=2944, Elements=1389, ZONETYPE=FETETRAHEDRON
DATAPACKING=BLOCK
VARLOCATION=([5]=CELLCENTERED)
0.97007
0.979841
0.98188
0.972294
0.97007
0.979841
0.98188
0.972294
0.988309
0.990156
0.988309
0.990156
0.995417
0.997066
0.995417
0.997066
1.00111
1.00256
1.00111
1.00256
1.00532
1.00657
1.00532
1.00657
1.00797
1.00903
1.00797
1.00903
1.00893
1.00987
1.00893
1.00987
1.00797
1.00903
1.00797
1.00903
1.00532
1.00657
1.00532
1.00657
1.00111
1.00256
1.00111
1.00256
0.995417
0.997066
0.995417
0.997066
0.988309
0.990156
0.988309
0.990156
0.979841
0.98188
0.979841
0.98188
0.97007
0.972294
0.97007
0.972294
0.959052
0.961451
0.959052
0.961451
0.946842
0.949405
0.946842
0.949405
0.933498
0.936211
0.933498
0.936211
0.919076
0.921926
0.919076
0.921926
0.903637
0.906607
0.903637
0.906607
0.887237
0.890311
0.887237
0.890311
0.869938
0.873098
0.869938
0.873098
0.851798
0.855026
0.851798
0.855026
0.832879
0.836156
0.832879
0.836156
0.81324
0.816546
0.81324
0.816546
0.792942
0.796257
0.792942
0.796257
0.772043
0.775348
0.772043
0.775348
0.750605
0.753878
0.750605
0.753878
0.98518
0.975728
0.98518
0.975728
0.993313
0.993313
1.00008
1.00008
1.00542
1.00542
1.0093
1.0093
1.01165
1.01165
1.01244
1.01244
1.01165
1.01165
1.0093
1.0093
1.00542
1.00542
1.00008
1.00008
0.993313
0.993313
0.98518
0.98518
0.975728
0.975728
0.965009
0.965009
0.953076
0.953076
0.939982
0.939982
0.925781
0.925781
0.910529
0.910529
0.894284
0.894284
0.877103
0.877103
0.859045
0.859045
0.840168
0.840168
0.820533
0.820533
0.800198
0.800198
0.779222
0.779222
0.757666
0.757666
0.989747
0.980383
0.989747
0.980383
0.997786
0.997786
1.00445
1.00445
1.0097
1.0097
1.01349
1.01349
1.01578
1.01578
1.01655
1.01655
1.01578
1.01578
1.01349
1.01349
1.0097
1.0097
1.00445
1.00445
0.997786
0.997786
0.989747
0.989747
0.980383
0.980383
0.969742
0.969742
0.957872
0.957872
0.944828
0.944828
0.93066
0.93066
0.915425
0.915425
0.899179
0.899179
0.881977
0.881977
0.863878
0.863878
0.844941
0.844941
0.825225
0.825225
0.804788
0.804788
0.783691
0.783691
0.761992
0.761992
0.995593
0.986272
0.995593
0.986272
1.00358
1.00358
1.01019
1.01019
1.01538
1.01538
1.01912
1.01912
1.02137
1.02137
1.02213
1.02213
1.02137
1.02137
1.01912
1.01912
1.01538
1.01538
1.01019
1.01019
1.00358
1.00358
0.995593
0.995593
0.986272
0.986272
0.975662
0.975662
0.96381
0.96381
0.950767
0.950767
0.936585
0.936585
0.921316
0.921316
0.905016
0.905016
0.887741
0.887741
0.869549
0.869549
0.850498
0.850498
0.830646
0.830646
0.810052
0.810052
0.788777
0.788777
0.76688
0.76688
1.00273
0.993409
1.00273
0.993409
1.0107
1.0107
1.01729
1.01729
1.02246
1.02246
1.02617
1.02617
1.02841
1.02841
1.02916
1.02916
1.02841
1.02841
1.02617
1.02617
1.02246
1.02246
1.01729
1.01729
1.0107
1.0107
1.00273
1.00273
0.993409
0.993409
0.982787
0.982787
0.970908
0.970908
0.957821
0.957821
0.943575
0.943575
0.928223
0.928223
0.911819
0.911819
0.89442
0.89442
0.876082
0.876082
0.856862
0.856862
0.83682
0.83682
0.816014
0.816014
0.794505
0.794505
0.772352
0.772352
1.01116
1.00181
1.01116
1.00181
1.01916
1.01916
1.02576
1.02576
1.03093
1.03093
1.03464
1.03464
1.03688
1.03688
1.03763
1.03763
1.03688
1.03688
1.03464
1.03464
1.03093
1.03093
1.02576
1.02576
1.01916
1.01916
1.01116
1.01116
1.00181
1.00181
0.991134
0.991134
0.979185
0.979185
0.966008
0.966008
0.951652
0.951652
0.936169
0.936169
0.919613
0.919613
0.902037
0.902037
0.8835
0.8835
0.864058
0.864058
0.843771
0.843771
0.822698
0.822698
0.800899
0.800899
0.778434
0.778434
1.02091
1.01149
1.02091
1.01149
1.02896
1.02896
1.0356
1.0356
1.0408
1.0408
1.04453
1.04453
1.04678
1.04678
1.04753
1.04753
1.04678
1.04678
1.04453
1.04453
1.0408
1.0408
1.0356
1.0356
1.02896
1.02896
1.02091
1.02091
1.01149
1.01149
1.00072
1.00072
0.988661
0.988661
0.975352
0.975352
0.960841
0.960841
0.945179
0.945179
0.92842
0.92842
0.910618
0.910618
0.89183
0.89183
0.872113
0.872113
0.851527
0.851527
0.83013
0.83013
0.807984
0.807984
0.785149
0.785149
1.032
1.02246
1.032
1.02246
1.04013
1.04013
1.04684
1.04684
1.05209
1.05209
1.05585
1.05585
1.05812
1.05812
1.05888
1.05888
1.05812
1.05812
1.05585
1.05585
1.05209
1.05209
1.04684
1.04684
1.04013
1.04013
1.032
1.032
1.02246
1.02246
1.01157
1.01157
0.99936
0.99936
0.985876
0.985876
0.971165
0.971165
0.955278
0.955278
0.938268
0.938268
0.920189
0.920189
0.901098
0.901098
0.881052
0.881052
0.860111
0.860111
0.838335
0.838335
0.815784
0.815784
0.79252
0.79252
1.04443
1.03476
1.04443
1.03476
1.05268
1.05268
1.05948
1.05948
1.0648
1.0648
1.06861
1.06861
1.07091
1.07091
1.07167
1.07167
1.07091
1.07091
1.06861
1.06861
1.0648
1.0648
1.05948
1.05948
1.05268
1.05268
1.04443
1.04443
1.03476
1.03476
1.02371
1.02371
1.01131
1.01131
0.997607
0.997607
0.982652
0.982652
0.966494
0.966494
0.949185
0.949185
0.930779
0.930779
0.911332
0.911332
0.890903
0.890903
0.869552
0.869552
0.847339
0.847339
0.824326
0.824326
0.800575
0.800575
1.05825
1.04841
1.05825
1.04841
1.06664
1.06664
1.07355
1.07355
1.07895
1.07895
1.08283
1.08283
1.08516
1.08516
1.08594
1.08594
1.08516
1.08516
1.08283
1.08283
1.07895
1.07895
1.07355
1.07355
1.06664
1.06664
1.05825
1.05825
1.04841
1.04841
1.03716
1.03716
1.02453
1.02453
1.01057
1.01057
0.995332
0.995332
0.978857
0.978857
0.9612
0.9612
0.942416
0.942416
0.922561
0.922561
0.901696
0.901696
0.879878
0.879878
0.857171
0.857171
0.833636
0.833636
0.809337
0.809337
1.07347
1.06343
1.07347
1.06343
1.08203
1.08203
1.08908
1.08908
1.09458
1.09458
1.09853
1.09853
1.10091
1.10091
1.10171
1.10171
1.10091
1.10091
1.09853
1.09853
1.09458
1.09458
1.08908
1.08908
1.08203
1.08203
1.07347
1.07347
1.06343
1.06343
1.05195
1.05195
1.03906
1.03906
1.02481
1.02481
1.00923
1.00923
0.992397
0.992397
0.974344
0.974344
0.955132
0.955132
0.934817
0.934817
0.913459
0.913459
0.891119
0.891119
0.867859
0.867859
0.843743
0.843743
0.818835
0.818835
1.09014
1.07987
1.09014
1.07987
1.09888
1.09888
1.10609
1.10609
1.11172
1.11172
1.11575
1.11575
1.11818
1.11818
1.11899
1.11899
1.11818
1.11818
1.11575
1.11575
1.11172
1.11172
1.10609
1.10609
1.09888
1.09888
1.09014
1.09014
1.07987
1.07987
1.06812
1.06812
1.05493
1.05493
1.04034
1.04034
1.0244
1.0244
1.00715
1.00715
0.988652
0.988652
0.96896
0.96896
0.948132
0.948132
0.926226
0.926226
0.903306
0.903306
0.879434
0.879434
0.854675
0.854675
0.829095
0.829095
1.10827
1.09775
1.10827
1.09775
1.11724
1.11724
1.12462
1.12462
1.13039
1.13039
1.13452
1.13452
1.13701
1.13701
1.13784
1.13784
1.13701
1.13701
1.13452
1.13452
1.13039
1.13039
1.12462
1.12462
1.11724
1.11724
1.10827
1.10827
1.09775
1.09775
1.08571
1.08571
1.07218
1.07218
1.05721
1.05721
1.04085
1.04085
1.02315
1.02315
1.00416
1.00416
0.983937
0.983937
0.96254
0.96254
0.940031
0.940031
0.916472
0.916472
0.891928
0.891928
0.866464
0.866464
0.840148
0.840148
1.12793
1.11712
1.12793
1.11712
1.13714
1.13714
1.14472
1.14472
1.15064
1.15064
1.15488
1.15488
1.15744
1.15744
1.15829
1.15829
1.15744
1.15744
1.15488
1.15488
1.15064
1.15064
1.14472
1.14472
1.13714
1.13714
1.12793
1.12793
1.11712
1.11712
1.10474
1.10474
1.09084
1.09084
1.07546
1.07546
1.05864
1.05864
1.04044
1.04044
1.02091
1.02091
1.0001
1.0001
0.97808
0.97808
0.95491
0.95491
0.930652
0.930652
0.905374
0.905374
0.879142
0.879142
0.852024
0.852024
1.14914
1.13802
1.14914
1.13802
1.15862
1.15862
1.16642
1.16642
1.17251
1.17251
1.17688
1.17688
1.1795
1.1795
1.18038
1.18038
1.1795
1.1795
1.17688
1.17688
1.17251
1.17251
1.16642
1.16642
1.15862
1.15862
1.14914
1.14914
1.13802
1.13802
1.12528
1.12528
1.11097
1.11097
1.09513
1.09513
1.07781
1.07781
1.05906
1.05906
1.03893
1.03893
1.01749
1.01749
0.99479
0.99479
0.9709
0.9709
0.945884
0.945884
0.919807
0.919807
0.892741
0.892741
0.864755
0.864755
1.17197
1.1605
1.17197
1.1605
1.18173
1.18173
1.18977
1.18977
1.19605
1.19605
1.20055
1.20055
1.20326
1.20326
1.20416
1.20416
1.20326
1.20326
1.20055
1.20055
1.19605
1.19605
1.18977
1.18977
1.18173
1.18173
1.17197
1.17197
1.1605
1.1605
1.14736
1.14736
1.1326
1.1326
1.11627
1.11627
1.0984
1.0984
1.07905
1.07905
1.05828
1.05828
1.03615
1.03615
1.01271
1.01271
0.988043
0.988043
0.962205
0.962205
0.935266
0.935266
0.907298
0.907298
0.878374
0.878374
1.19645
1.18461
1.19645
1.18461
1.20653
1.20653
1.21483
1.21483
1.22131
1.22131
1.22596
1.22596
1.22875
1.22875
1.22969
1.22969
1.22875
1.22875
1.22596
1.22596
1.22131
1.22131
1.21483
1.21483
1.20653
1.20653
1.19645
1.19645
1.18461
1.18461
1.17104
1.17104
1.1558
1.1558
1.13892
1.13892
1.12046
1.12046
1.10047
1.10047
1.079
1.079
1.05612
1.05612
1.03189
1.03189
1.00638
1.00638
0.979657
0.979657
0.951789
0.951789
0.922851
0.922851
0.892918
0.892918
1.22265
1.2104
1.22265
1.2104
1.23308
1.23308
1.24166
1.24166
1.24836
1.24836
1.25316
1.25316
1.25605
1.25605
1.25701
1.25701
1.25605
1.25605
1.25316
1.25316
1.24836
1.24836
1.24166
1.24166
1.23308
1.23308
1.22265
1.22265
1.2104
1.2104
1.19637
1.19637
1.18061
1.18061
1.16315
1.16315
1.14405
1.14405
1.12336
1.12336
1.10114
1.10114
1.07746
1.07746
1.05238
1.05238
1.02596
1.02596
0.998284
0.998284
0.969419
0.969419
0.939439
0.939439
0.908423
0.908423
1.25063
1.23795
1.25063
1.23795
1.26143
1.26143
1.27031
1.27031
1.27724
1.27724
1.28222
1.28222
1.28521
1.28521
1.2862
1.2862
1.28521
1.28521
1.28222
1.28222
1.27724
1.27724
1.27031
1.27031
1.26143
1.26143
1.25063
1.25063
1.23795
1.23795
1.22342
1.22342
1.20709
1.20709
1.189
1.189
1.16922
1.16922
1.14778
1.14778
1.12476
1.12476
1.10022
1.10022
1.07422
1.07422
1.04683
1.04683
1.01813
1.01813
0.988199
0.988199
0.957104
0.957104
0.924929
0.924929
1.28045
1.2673
1.28045
1.2673
1.29164
1.29164
1.30085
1.30085
1.30804
1.30804
1.31319
1.31319
1.31629
1.31629
1.31733
1.31733
1.31629
1.31629
1.31319
1.31319
1.30804
1.30804
1.30085
1.30085
1.29164
1.29164
1.28045
1.28045
1.2673
1.2673
1.25224
1.25224
1.23531
1.23531
1.21655
1.21655
1.19603
1.19603
1.17379
1.17379
1.14991
1.14991
1.12444
1.12444
1.09746
1.09746
1.06904
1.06904
1.03925
1.03925
1.00818
1.00818
0.97589
0.97589
0.942478
0.942478
1.31219
1.29854
1.31219
1.29854
1.32381
1.32381
1.33336
1.33336
1.34082
1.34082
1.34617
1.34617
1.34938
1.34938
1.35046
1.35046
1.34938
1.34938
1.34617
1.34617
1.34082
1.34082
1.33336
1.33336
1.32381
1.32381
1.31219
1.31219
1.29854
1.29854
1.28291
1.28291
1.26533
1.26533
1.24586
1.24586
1.22455
1.22455
1.20146
1.20146
1.17665
1.17665
1.1502
1.1502
1.12218
1.12218
1.09265
1.09265
1.0617
1.0617
1.0294
1.0294
0.995844
0.995844
0.961114
0.961114
1.34591
1.33174
1.34591
1.33174
1.35798
1.35798
1.36791
1.36791
1.37566
1.37566
1.38122
1.38122
1.38456
1.38456
1.38567
1.38567
1.38456
1.38456
1.38122
1.38122
1.37566
1.37566
1.36791
1.36791
1.35798
1.35798
1.34591
1.34591
1.33174
1.33174
1.31549
1.31549
1.29722
1.29722
1.27699
1.27699
1.25484
1.25484
1.23084
1.23084
1.20506
1.20506
1.17756
1.17756
1.14841
1.14841
1.11771
1.11771
1.08552
1.08552
1.05192
1.05192
1.01702
1.01702
0.980882
0.980882
1.38171
1.36697
1.38171
1.36697
1.39426
1.39426
1.40458
1.40458
1.41264
1.41264
1.41842
1.41842
1.42189
1.42189
1.42305
1.42305
1.42189
1.42189
1.41842
1.41842
1.41264
1.41264
1.40458
1.40458
1.39426
1.39426
1.38171
1.38171
1.36697
1.36697
1.35007
1.35007
1.33107
1.33107
1.31002
1.31002
1.28698
1.28698
1.26201
1.26201
1.23518
1.23518
1.20657
1.20657
1.17624
1.17624
1.14428
1.14428
1.11077
1.11077
1.0758
1.0758
1.03946
1.03946
1.00183
1.00183
1.44346
1.43272
1.44346
1.43272
1.45185
1.45185
1.45786
1.45786
1.46148
1.46148
1.46268
1.46268
1.46148
1.46148
1.45786
1.45786
1.45185
1.45185
1.44346
1.44346
1.43272
1.43272
1.41966
1.41966
1.40431
1.40431
1.38673
1.38673
1.36695
1.36695
1.34504
1.34504
1.32105
1.32105
1.29505
1.29505
1.26711
1.26711
1.23731
1.23731
1.20572
1.20572
1.17243
1.17243
1.13752
1.13752
1.10109
1.10109
1.06322
1.06322
1.02401
1.02401
1.48465
1.47346
1.48465
1.47346
1.49339
1.49339
1.49964
1.49964
1.50341
1.50341
1.50467
1.50467
1.50341
1.50341
1.49964
1.49964
1.49339
1.49339
1.48465
1.48465
1.47346
1.47346
1.45986
1.45986
1.44387
1.44387
1.42555
1.42555
1.40494
1.40494
1.38211
1.38211
1.35712
1.35712
1.33003
1.33003
1.30091
1.30091
1.26985
1.26985
1.23693
1.23693
1.20223
1.20223
1.16584
1.16584
1.12785
1.12785
1.08837
1.08837
1.04749
1.04749
1.52823
1.51657
1.52823
1.51657
1.53734
1.53734
1.54386
1.54386
1.54779
1.54779
1.5491
1.5491
1.54779
1.54779
1.54386
1.54386
1.53734
1.53734
1.52823
1.52823
1.51657
1.51657
1.50239
1.50239
1.48573
1.48573
1.46663
1.46663
1.44515
1.44515
1.42135
1.42135
1.39528
1.39528
1.36704
1.36704
1.33668
1.33668
1.30428
1.30428
1.26994
1.26994
1.23375
1.23375
1.19579
1.19579
1.15616
1.15616
1.11496
1.11496
1.0723
1.0723
1.57432
1.56216
1.57432
1.56216
1.58382
1.58382
1.59062
1.59062
1.59472
1.59472
1.59608
1.59608
1.59472
1.59472
1.59062
1.59062
1.58382
1.58382
1.57432
1.57432
1.56216
1.56216
1.54737
1.54737
1.52999
1.52999
1.51007
1.51007
1.48766
1.48766
1.46282
1.46282
1.43563
1.43563
1.40616
1.40616
1.37448
1.37448
1.34068
1.34068
1.30484
1.30484
1.26706
1.26706
1.22744
1.22744
1.18607
1.18607
1.14306
1.14306
1.09852
1.09852
1.62303
1.61034
1.62303
1.61034
1.63294
1.63294
1.64004
1.64004
1.64431
1.64431
1.64573
1.64573
1.64431
1.64431
1.64004
1.64004
1.63294
1.63294
1.62303
1.62303
1.61034
1.61034
1.5949
1.5949
1.57676
1.57676
1.55596
1.55596
1.53257
1.53257
1.50665
1.50665
1.47827
1.47827
1.4475
1.4475
1.41442
1.41442
1.37912
1.37912
1.3417
1.3417
1.30225
1.30225
1.26087
1.26087
1.21766
1.21766
1.17274
1.17274
1.12621
1.12621
1.05256
1.0782
1.05256
1.0782
1.67446
1.66121
1.67446
1.66121
1.68481
1.68481
1.69222
1.69222
1.69668
1.69668
1.69817
1.69817
1.69668
1.69668
1.69222
1.69222
1.68481
1.68481
1.67446
1.67446
1.66121
1.66121
1.64509
1.64509
1.62615
1.62615
1.60443
1.60443
1.58
1.58
1.55293
1.55293
1.52328
1.52328
1.49114
1.49114
1.45659
1.45659
1.41972
1.41972
1.38062
1.38062
1.3394
1.3394
1.29616
1.29616
1.25101
1.25101
1.20407
1.20407
1.15544
1.15544
1.10525
1.10525
1.72875
1.71491
1.72875
1.71491
1.73956
1.73956
1.74731
1.74731
1.75196
1.75196
1.75352
1.75352
1.75196
1.75196
1.74731
1.74731
1.73956
1.73956
1.72875
1.72875
1.71491
1.71491
1.69807
1.69807
1.67827
1.67827
1.65559
1.65559
1.63006
1.63006
1.60177
1.60177
1.57079
1.57079
1.5372
1.5372
1.50109
1.50109
1.46256
1.46256
1.42169
1.42169
1.3786
1.3786
1.3334
1.3334
1.2862
1.2862
1.23712
1.23712
1.18628
1.18628
1.1338
1.1338
1.78603
1.77156
1.78603
1.77156
1.79733
1.79733
1.80542
1.80542
1.81029
1.81029
1.81191
1.81191
1.81029
1.81029
1.80542
1.80542
1.79733
1.79733
1.78603
1.78603
1.77156
1.77156
1.75395
1.75395
1.73327
1.73327
1.70955
1.70955
1.68287
1.68287
1.6533
1.6533
1.62091
1.62091
1.58579
1.58579
1.54804
1.54804
1.50774
1.50774
1.46501
1.46501
1.41995
1.41995
1.37268
1.37268
1.32331
1.32331
1.27198
1.27198
1.21879
1.21879
1.1639
1.1639
1.84642
1.83129
1.84642
1.83129
1.85824
1.85824
1.8667
1.8667
1.87179
1.87179
1.87349
1.87349
1.87179
1.87179
1.8667
1.8667
1.85824
1.85824
1.84642
1.84642
1.83129
1.83129
1.81289
1.81289
1.79126
1.79126
1.76646
1.76646
1.73856
1.73856
1.70763
1.70763
1.67375
1.67375
1.63702
1.63702
1.59753
1.59753
1.55538
1.55538
1.51068
1.51068
1.46355
1.46355
1.41409
1.41409
1.36244
1.36244
1.30872
1.30872
1.25307
1.25307
1.19563
1.19563
1.91009
1.89426
1.91009
1.89426
1.92245
1.92245
1.9313
1.9313
1.93662
1.93662
1.93839
1.93839
1.93662
1.93662
1.9313
1.9313
1.92245
1.92245
1.91009
1.91009
1.89426
1.89426
1.87501
1.87501
1.85238
1.85238
1.82644
1.82644
1.79725
1.79725
1.76489
1.76489
1.72945
1.72945
1.69102
1.69102
1.6497
1.6497
1.6056
1.6056
1.55882
1.55882
1.50949
1.50949
1.45773
1.45773
1.40367
1.40367
1.34745
1.34745
1.2892
1.2892
1.22906
1.22906
1.97717
1.96061
1.97717
1.96061
1.9901
1.9901
1.99936
1.99936
2.00493
2.00493
2.00679
2.00679
2.00493
2.00493
1.99936
1.99936
1.9901
1.9901
1.97717
1.97717
1.96061
1.96061
1.94047
1.94047
1.91679
1.91679
1.88964
1.88964
1.85909
1.85909
1.82523
1.82523
1.78814
1.78814
1.74792
1.74792
1.70467
1.70467
1.6585
1.6585
1.60954
1.60954
1.55789
1.55789
1.50371
1.50371
1.44711
1.44711
1.38824
1.38824
1.32725
1.32725
1.26428
1.26428
2.06137
2.04784
2.06137
2.04784
2.07106
2.07106
2.07689
2.07689
2.07884
2.07884
2.07689
2.07689
2.07106
2.07106
2.06137
2.06137
2.04784
2.04784
2.03051
2.03051
2.00942
2.00942
1.98463
1.98463
1.95621
1.95621
1.92424
1.92424
1.88879
1.88879
1.84996
1.84996
1.80785
1.80785
1.76257
1.76257
1.71423
1.71423
1.66295
1.66295
1.60888
1.60888
1.55213
1.55213
1.49286
1.49286
1.43121
1.43121
1.36733
1.36733
1.30138
1.30138
2.13642
2.12226
2.13642
2.12226
2.14657
2.14657
2.15267
2.15267
2.15471
2.15471
2.15267
2.15267
2.14657
2.14657
2.13642
2.13642
2.12226
2.12226
2.10411
2.10411
2.08203
2.08203
2.05608
2.05608
2.02632
2.02632
1.99284
1.99284
1.95572
1.95572
1.91506
1.91506
1.87096
1.87096
1.82353
1.82353
1.77291
1.77291
1.7192
1.7192
1.66256
1.66256
1.60312
1.60312
1.54104
1.54104
1.47645
1.47645
1.40953
1.40953
1.34043
1.34043
2.21544
2.20061
2.21544
2.20061
2.22607
2.22607
2.23246
2.23246
2.23459
2.23459
2.23246
2.23246
2.22607
2.22607
2.21544
2.21544
2.20061
2.20061
2.1816
2.1816
2.15848
2.15848
2.1313
2.1313
2.10013
2.10013
2.06506
2.06506
2.02618
2.02618
1.98359
1.98359
1.93739
1.93739
1.88772
1.88772
1.83468
1.83468
1.77842
1.77842
1.71908
1.71908
1.6568
1.6568
1.59175
1.59175
1.52408
1.52408
1.45395
1.45395
1.38154
1.38154
2.29861
2.28307
2.29861
2.28307
2.30975
2.30975
2.31644
2.31644
2.31867
2.31867
2.31644
2.31644
2.30975
2.30975
2.29861
2.29861
2.28307
2.28307
2.26317
2.26317
2.23894
2.23894
2.21047
2.21047
2.17782
2.17782
2.14108
2.14108
2.10035
2.10035
2.05572
2.05572
2.00732
2.00732
1.95527
1.95527
1.8997
1.8997
1.84075
1.84075
1.77856
1.77856
1.7133
1.7133
1.64512
1.64512
1.5742
1.5742
1.5007
1.5007
1.42481
1.42481
2.38614
2.36986
2.38614
2.36986
2.3978
2.3978
2.40481
2.40481
2.40715
2.40715
2.40481
2.40481
2.3978
2.3978
2.38614
2.38614
2.36986
2.36986
2.349
2.349
2.32362
2.32362
2.29379
2.29379
2.25958
2.25958
2.22108
2.22108
2.1784
2.1784
2.13163
2.13163
2.08091
2.08091
2.02636
2.02636
1.96812
1.96812
1.90633
1.90633
1.84115
1.84115
1.77275
1.77275
1.70129
1.70129
1.62694
1.62694
1.54989
1.54989
1.47034
1.47034
2.47823
2.46117
2.47823
2.46117
2.49045
2.49045
2.4978
2.4978
2.50025
2.50025
2.4978
2.4978
2.49045
2.49045
2.47823
2.47823
2.46117
2.46117
2.43931
2.43931
2.41271
2.41271
2.38145
2.38145
2.3456
2.3456
2.30525
2.30525
2.26051
2.26051
2.2115
2.2115
2.15833
2.15833
2.10116
2.10116
2.0401
2.0401
1.97533
1.97533
1.90701
1.90701
1.8353
1.8353
1.76038
1.76038
1.68243
1.68243
1.60165
1.60165
1.51823
1.51823
2.57511
2.55723
2.57511
2.55723
2.58792
2.58792
2.59562
2.59562
2.59819
2.59819
2.59562
2.59562
2.58792
2.58792
2.57511
2.57511
2.55723
2.55723
2.53432
2.53432
2.50644
2.50644
2.47367
2.47367
2.43609
2.43609
2.39379
2.39379
2.3469
2.3469
2.29551
2.29551
2.23978
2.23978
2.17984
2.17984
2.11583
2.11583
2.04792
2.04792
1.97628
1.97628
1.90109
1.90109
1.82253
1.82253
1.7408
1.7408
1.65609
1.65609
1.56861
1.56861
2.67701
2.65826
2.67701
2.65826
2.69044
2.69044
2.69851
2.69851
2.7012
2.7012
2.69851
2.69851
2.69044
2.69044
2.67701
2.67701
2.65826
2.65826
2.63425
2.63425
2.60502
2.60502
2.57066
2.57066
2.53126
2.53126
2.48692
2.48692
2.43775
2.43775
2.38388
2.38388
2.32545
2.32545
2.26259
2.26259
2.19548
2.19548
2.12427
2.12427
2.04914
2.04914
1.97029
1.97029
1.88791
1.88791
1.80219
1.80219
1.71335
1.71335
1.6216
1.6216
2.78418
2.76452
2.78418
2.76452
2.79825
2.79825
2.80672
2.80672
2.80954
2.80954
2.80672
2.80672
2.79825
2.79825
2.78418
2.78418
2.76452
2.76452
2.73934
2.73934
2.7087
2.7087
2.67267
2.67267
2.63136
2.63136
2.58487
2.58487
2.53331
2.53331
2.47682
2.47682
2.41554
2.41554
2.34962
2.34962
2.27924
2.27924
2.20456
2.20456
2.12577
2.12577
2.04307
2.04307
1.95666
1.95666
1.86675
1.86675
1.77356
1.77356
1.67732
1.67732
2.89687
2.87625
2.89687
2.87625
2.91163
2.91163
2.9205
2.9205
2.92346
2.92346
2.9205
2.9205
2.91163
2.91163
2.89687
2.89687
2.87625
2.87625
2.84985
2.84985
2.81771
2.81771
2.77994
2.77994
2.73661
2.73661
2.68786
2.68786
2.63378
2.63378
2.57454
2.57454
2.51027
2.51027
2.44114
2.44114
2.36731
2.36731
2.28898
2.28898
2.20634
2.20634
2.11959
2.11959
2.02895
2.02895
1.93463
1.93463
1.83687
1.83687
1.73591
1.73591
3.01535
2.99373
3.01535
2.99373
3.03083
3.03083
3.04014
3.04014
3.04324
3.04324
3.04014
3.04014
3.03083
3.03083
3.01535
3.01535
2.99373
2.99373
2.96604
2.96604
2.93234
2.93234
2.89272
2.89272
2.84728
2.84728
2.79614
2.79614
2.73943
2.73943
2.67729
2.67729
2.60987
2.60987
2.53736
2.53736
2.45992
2.45992
2.37775
2.37775
2.29105
2.29105
2.20005
2.20005
2.10495
2.10495
2.006
2.006
1.90344
1.90344
1.79751
1.79751
3.13992
3.11724
3.13992
3.11724
3.15615
3.15615
3.16591
3.16591
3.16917
3.16917
3.16591
3.16591
3.15615
3.15615
3.13992
3.13992
3.11724
3.11724
3.0882
3.0882
3.05285
3.05285
3.01129
3.01129
2.96363
2.96363
2.90998
2.90998
2.85049
2.85049
2.78531
2.78531
2.71459
2.71459
2.63851
2.63851
2.55727
2.55727
2.47107
2.47107
2.38011
2.38011
2.28463
2.28463
2.18486
2.18486
2.08104
2.08104
1.97342
1.97342
1.86227
1.86227
3.27086
3.24708
3.27086
3.24708
3.28789
3.28789
3.29813
3.29813
3.30155
3.30155
3.29813
3.29813
3.28789
3.28789
3.27086
3.27086
3.24708
3.24708
3.21661
3.21661
3.17953
3.17953
3.13593
3.13593
3.08593
3.08593
3.02966
3.02966
2.96725
2.96725
2.89886
2.89886
2.82466
2.82466
2.74485
2.74485
2.65961
2.65961
2.56916
2.56916
2.47373
2.47373
2.37354
2.37354
2.26885
2.26885
2.15991
2.15991
2.04698
2.04698
1.93034
1.93034
3.4085
3.38355
3.4085
3.38355
3.42637
3.42637
3.43711
3.43711
3.4407
3.4407
3.43711
3.43711
3.42637
3.42637
3.4085
3.4085
3.38355
3.38355
3.35159
3.35159
3.31269
3.31269
3.26695
3.26695
3.21449
3.21449
3.15545
3.15545
3.08997
3.08997
3.01822
3.01822
2.94037
2.94037
2.85662
2.85662
2.76719
2.76719
2.67228
2.67228
2.57214
2.57214
2.467
2.467
2.35714
2.35714
2.24282
2.24282
2.12431
2.12431
2.0019
2.0019
3.55317
3.527
3.55317
3.527
3.57192
3.57192
3.58319
3.58319
3.58695
3.58695
3.58319
3.58319
3.57192
3.57192
3.55317
3.55317
3.527
3.527
3.49346
3.49346
3.45264
3.45264
3.40466
3.40466
3.34962
3.34962
3.28767
3.28767
3.21896
3.21896
3.14367
3.14367
3.06198
3.06198
2.9741
2.9741
2.88025
2.88025
2.78065
2.78065
2.67556
2.67556
2.56523
2.56523
2.44994
2.44994
2.32995
2.32995
2.20557
2.20557
2.0771
2.0771
3.70522
3.67776
3.70522
3.67776
3.72489
3.72489
3.73671
3.73671
3.74066
3.74066
3.73671
3.73671
3.72489
3.72489
3.70522
3.70522
3.67776
3.67776
3.64256
3.64256
3.59974
3.59974
3.54938
3.54938
3.49163
3.49163
3.42662
3.42662
3.35453
3.35453
3.27552
3.27552
3.18979
3.18979
3.09757
3.09757
2.99908
2.99908
2.89456
2.89456
2.78426
2.78426
2.66847
2.66847
2.54746
2.54746
2.42153
2.42153
2.29098
2.29098
2.15614
2.15614
3.86501
3.83619
3.86501
3.83619
3.88565
3.88565
3.89806
3.89806
3.9022
3.9022
3.89806
3.89806
3.88565
3.88565
3.86501
3.86501
3.83619
3.83619
3.79926
3.79926
3.75432
3.75432
3.70148
3.70148
3.64088
3.64088
3.57266
3.57266
3.49699
3.49699
3.41408
3.41408
3.32412
3.32412
3.22733
3.22733
3.12396
3.12396
3.01426
3.01426
2.8985
2.8985
2.77697
2.77697
2.64995
2.64995
2.51777
2.51777
2.38074
2.38074
2.2392
2.2392
4.03293
4.00268
4.03293
4.00268
4.05459
4.05459
4.06761
4.06761
4.07195
4.07195
4.06761
4.06761
4.05459
4.05459
4.03293
4.03293
4.00268
4.00268
3.96393
3.96393
3.91677
3.91677
3.86132
3.86132
3.79771
3.79771
3.72612
3.72612
3.64671
3.64671
3.55969
3.55969
3.46527
3.46527
3.36368
3.36368
3.25519
3.25519
3.14005
3.14005
3.01854
3.01854
2.89098
2.89098
2.75766
2.75766
2.61891
2.61891
2.47507
2.47507
2.32649
2.32649
4.20938
4.17764
4.20938
4.17764
4.23211
4.23211
4.24577
4.24577
4.25033
4.25033
4.24577
4.24577
4.23211
4.23211
4.20938
4.20938
4.17764
4.17764
4.13697
4.13697
4.08747
4.08747
4.02927
4.02927
3.96252
3.96252
3.88738
3.88738
3.80403
3.80403
3.7127
3.7127
3.61359
3.61359
3.50697
3.50697
3.39309
3.39309
3.27223
3.27223
3.14469
3.14469
3.01078
3.01078
2.87083
2.87083
2.72518
2.72518
2.57418
2.57418
2.4182
2.4182
4.39479
4.36147
4.39479
4.36147
4.41864
4.41864
4.43298
4.43298
4.43777
4.43777
4.43298
4.43298
4.41864
4.41864
4.39479
4.39479
4.36147
4.36147
4.31879
4.31879
4.26684
4.26684
4.20575
4.20575
0.00538324
0.00405368
0.0129026
0.0154931
0.00538324
0.00405368
0.0129026
0.0154931
0.00288861
0.0104258
0.00288861
0.0104258
0.00190122
0.0080745
0.00190122
0.0080745
0.00110451
0.00585811
0.00110451
0.00585811
0.000511552
0.00378185
0.000511552
0.00378185
0.000136517
0.00184083
0.000136517
0.00184083
0
0
0
0
-0.000136517
-0.00184083
-0.000136517
-0.00184083
-0.000511552
-0.00378185
-0.000511552
-0.00378185
-0.00110451
-0.00585811
-0.00110451
-0.00585811
-0.00190122
-0.0080745
-0.00190122
-0.0080745
-0.00288861
-0.0104258
-0.00288861
-0.0104258
-0.00405368
-0.0129026
-0.00405368
-0.0129026
-0.00538324
-0.0154931
-0.00538324
-0.0154931
-0.00686384
-0.0181841
-0.00686384
-0.0181841
-0.00848184
-0.020962
-0.00848184
-0.020962
-0.0102236
-0.0238125
-0.0102236
-0.0238125
-0.0120753
-0.0267213
-0.0120753
-0.0267213
-0.0140234
-0.029674
-0.0140234
-0.029674
-0.0160546
-0.0326567
-0.0160546
-0.0326567
-0.0181558
-0.0356555
-0.0181558
-0.0356555
-0.0203141
-0.038657
-0.0203141
-0.038657
-0.0225172
-0.0416482
-0.0225172
-0.0416482
-0.024753
-0.0446166
-0.024753
-0.0446166
-0.0270097
-0.0475498
-0.0270097
-0.0475498
-0.0292758
-0.0504362
-0.0292758
-0.0504362
-0.03154
-0.0532644
-0.03154
-0.0532644
0.0215749
0.0254334
0.0215749
0.0254334
0.017782
0.017782
0.0140659
0.0140659
0.0104343
0.0104343
0.00688887
0.00688887
0.00342019
0.00342019
0
0
-0.00342019
-0.00342019
-0.00688887
-0.00688887
-0.0104343
-0.0104343
-0.0140659
-0.0140659
-0.017782
-0.017782
-0.0215749
-0.0215749
-0.0254334
-0.0254334
-0.0293445
-0.0293445
-0.0332937
-0.0332937
-0.0372662
-0.0372662
-0.0412468
-0.0412468
-0.0452203
-0.0452203
-0.0491718
-0.0491718
-0.0530865
-0.0530865
-0.0569502
-0.0569502
-0.0607493
-0.0607493
-0.0644703
-0.0644703
-0.0681007
-0.0681007
-0.071628
-0.071628
-0.0750406
-0.0750406
0.0301201
0.0352541
0.0301201
0.0352541
0.025007
0.025007
0.0199266
0.0199266
0.0148872
0.0148872
0.00989156
0.00989156
0.00493426
0.00493426
0
0
-0.00493426
-0.00493426
-0.00989156
-0.00989156
-0.0148872
-0.0148872
-0.0199266
-0.0199266
-0.025007
-0.025007
-0.0301201
-0.0301201
-0.0352541
-0.0352541
-0.0403953
-0.0403953
-0.0455282
-0.0455282
-0.0506368
-0.0506368
-0.0557049
-0.0557049
-0.0607161
-0.0607161
-0.0656543
-0.0656543
-0.0705039
-0.0705039
-0.0752494
-0.0752494
-0.0798764
-0.0798764
-0.0843708
-0.0843708
-0.0887189
-0.0887189
-0.092908
-0.092908
-0.0969257
-0.0969257
0.0385842
0.0450023
0.0385842
0.0450023
0.032146
0.032146
0.0257012
0.0257012
0.0192605
0.0192605
0.0128301
0.0128301
0.0064113
0.0064113
0
0
-0.0064113
-0.0064113
-0.0128301
-0.0128301
-0.0192605
-0.0192605
-0.0257012
-0.0257012
-0.032146
-0.032146
-0.0385842
-0.0385842
-0.0450023
-0.0450023
-0.0513848
-0.0513848
-0.0577148
-0.0577148
-0.0639748
-0.0639748
-0.0701471
-0.0701471
-0.0762139
-0.0762139
-0.0821579
-0.0821579
-0.0879619
-0.0879619
-0.0936097
-0.0936097
-0.0990855
-0.0990855
-0.104374
-0.104374
-0.109461
-0.109461
-0.114333
-0.114333
-0.118977
-0.118977
0.0470101
0.0547224
0.0470101
0.0547224
0.0392399
0.0392399
0.031428
0.031428
0.0235886
0.0235886
0.0157326
0.0157326
0.00786806
0.00786806
0
0
-0.00786806
-0.00786806
-0.0157326
-0.0157326
-0.0235886
-0.0235886
-0.031428
-0.031428
-0.0392399
-0.0392399
-0.0470101
-0.0470101
-0.0547224
-0.0547224
-0.062359
-0.062359
-0.069901
-0.069901
-0.0773291
-0.0773291
-0.0846236
-0.0846236
-0.0917653
-0.0917653
-0.098735
-0.098735
-0.105514
-0.105514
-0.112086
-0.112086
-0.118432
-0.118432
-0.124537
-0.124537
-0.130384
-0.130384
-0.135961
-0.135961
-0.141252
-0.141252
0.0554369
0.064456
0.0554369
0.064456
0.0463251
0.0463251
0.03714
0.03714
0.0278998
0.0278998
0.0186204
0.0186204
0.00931623
0.00931623
0
0
-0.00931623
-0.00931623
-0.0186204
-0.0186204
-0.0278998
-0.0278998
-0.03714
-0.03714
-0.0463251
-0.0463251
-0.0554369
-0.0554369
-0.064456
-0.064456
-0.0733616
-0.0733616
-0.0821325
-0.0821325
-0.090747
-0.090747
-0.0991835
-0.0991835
-0.107421
-0.107421
-0.115438
-0.115438
-0.123215
-0.123215
-0.130732
-0.130732
-0.137971
-0.137971
-0.144914
-0.144914
-0.151545
-0.151545
-0.157849
-0.157849
-0.163809
-0.163809
0.0639011
0.0742423
0.0639011
0.0742423
0.0534347
0.0534347
0.0428661
0.0428661
0.0322177
0.0322177
0.0215105
0.0215105
0.0107649
0.0107649
0
0
-0.0107649
-0.0107649
-0.0215105
-0.0215105
-0.0322177
-0.0322177
-0.0428661
-0.0428661
-0.0534347
-0.0534347
-0.0639011
-0.0639011
-0.0742423
-0.0742423
-0.0844344
-0.0844344
-0.0944533
-0.0944533
-0.104275
-0.104275
-0.113875
-0.113875
-0.12323
-0.12323
-0.132317
-0.132317
-0.141115
-0.141115
-0.149602
-0.149602
-0.157758
-0.157758
-0.165563
-0.165563
-0.173001
-0.173001
-0.180054
-0.180054
-0.186706
-0.186706
0.0724366
0.0841186
0.0724366
0.0841186
0.0605987
0.0605987
0.048632
0.048632
0.0365629
0.0365629
0.0244175
0.0244175
0.0122214
0.0122214
0
0
-0.0122214
-0.0122214
-0.0244175
-0.0244175
-0.0365629
-0.0365629
-0.048632
-0.048632
-0.0605987
-0.0605987
-0.0724366
-0.0724366
-0.0841186
-0.0841186
-0.0956175
-0.0956175
-0.106906
-0.106906
-0.117957
-0.117957
-0.128744
-0.128744
-0.139242
-0.139242
-0.149424
-0.149424
-0.159268
-0.159268
-0.16875
-0.16875
-0.177847
-0.177847
-0.186541
-0.186541
-0.19481
-0.19481
-0.202637
-0.202637
-0.210004
-0.210004
0.0810752
0.0941201
0.0810752
0.0941201
0.0678452
0.0678452
0.0544612
0.0544612
0.0409538
0.0409538
0.027354
0.027354
0.0136925
0.0136925
0
0
-0.0136925
-0.0136925
-0.027354
-0.027354
-0.0409538
-0.0409538
-0.0544612
-0.0544612
-0.0678452
-0.0678452
-0.0810752
-0.0810752
-0.0941201
-0.0941201
-0.106949
-0.106949
-0.119532
-0.119532
-0.131838
-0.131838
-0.143839
-0.143839
-0.155505
-0.155505
-0.166809
-0.166809
-0.177726
-0.177726
-0.188229
-0.188229
-0.198296
-0.198296
-0.207903
-0.207903
-0.217029
-0.217029
-0.225655
-0.225655
-0.233761
-0.233761
0.0898473
0.104281
0.0898473
0.104281
0.0752005
0.0752005
0.0603755
0.0603755
0.0454074
0.0454074
0.0303317
0.0303317
0.015184
0.015184
0
0
-0.015184
-0.015184
-0.0303317
-0.0303317
-0.0454074
-0.0454074
-0.0603755
-0.0603755
-0.0752005
-0.0752005
-0.0898473
-0.0898473
-0.104281
-0.104281
-0.118467
-0.118467
-0.132371