TTILE = "Vizualisation of the partitioned mesh"
VARIABLES="X","Y","Z","FLAGNODE","FLAGCELL"
ZONE T="element0"
Nodes=272, Elements=112, ZONETYPE=FETETRAHEDRON
DATAPACKING=BLOCK
VARLOCATION=([5]=CELLCENTERED)
0.982933
0.97578
0.97584
0.982995
0.982933
0.97578
0.97584
0.982995
0.966926
0.966985
0.966926
0.966985
0.956008
0.956066
0.956008
0.956066
0.942613
0.94267
0.942613
0.94267
0.926273
0.926329
0.926273
0.926329
0.906486
0.90654
0.906486
0.90654
0.882733
0.882785
0.882733
0.882785
0.854516
0.854567
0.854516
0.854567
0.821413
0.821462
0.821413
0.821462
0.783141
0.783189
0.783141
0.783189
0.739634
0.739679
0.739634
0.739679
0.975909
0.983065
0.975909
0.983065
0.967052
0.967052
0.956132
0.956132
0.942733
0.942733
0.92639
0.92639
0.9066
0.9066
0.882843
0.882843
0.854624
0.854624
0.821517
0.821517
0.783242
0.783242
0.73973
0.73973
0.975985
0.983143
0.975985
0.983143
0.967126
0.967126
0.956205
0.956205
0.942804
0.942804
0.92646
0.92646
0.906667
0.906667
0.882909
0.882909
0.854687
0.854687
0.821579
0.821579
0.783301
0.783301
0.739788
0.739788
0.976067
0.983226
0.976067
0.983226
0.967208
0.967208
0.956286
0.956286
0.942884
0.942884
0.926537
0.926537
0.906743
0.906743
0.882983
0.882983
0.854759
0.854759
0.821649
0.821649
0.783369
0.783369
0.739854
0.739854
0.976149
0.983315
0.976149
0.983315
0.967295
0.967295
0.956374
0.956374
0.942972
0.942972
0.926624
0.926624
0.906828
0.906828
0.883066
0.883066
0.85484
0.85484
0.821728
0.821728
0.783447
0.783447
0.739929
0.739929
0.976226
0.983417
0.976226
0.983417
0.967378
0.967378
0.956466
0.956466
0.943067
0.943067
0.92672
0.92672
0.906923
0.906923
0.883159
0.883159
0.854932
0.854932
0.821818
0.821818
0.783535
0.783535
0.740016
0.740016
0.976293
0.983555
0.976293
0.983555
0.967448
0.967448
0.956552
0.956552
0.943165
0.943165
0.926823
0.926823
0.907028
0.907028
0.883263
0.883263
0.855035
0.855035
0.821919
0.821919
0.783635
0.783635
0.740115
0.740115
0.976357
0.983773
0.976357
0.983773
0.967491
0.967491
0.95662
0.95662
0.943257
0.943257
0.926929
0.926929
0.90714
0.90714
0.883378
0.883378
0.85515
0.85515
0.822034
0.822034
0.783749
0.783749
0.740229
0.740229
0.927028
0.943327
0.927028
0.943327
0.907256
0.907256
0.883502
0.883502
0.855277
0.855277
0.822163
0.822163
0.783879
0.783879
0.927105
0.943349
0.927105
0.943349
0.907366
0.907366
0.88363
0.88363
0.855415
0.855415
0.822306
0.822306
0.784025
0.784025
0.927129
0.94329
0.927129
0.94329
0.907452
0.907452
0.883754
0.883754
0.855559
0.855559
0.822462
0.822462
0.784189
0.784189
0.927057
0.943116
0.927057
0.943116
0.907485
0.907485
0.883855
0.883855
0.855701
0.855701
0.822628
0.822628
0.784369
0.784369
-0.00245348
-0.00346592
-0.00399001
-0.00298711
-0.00245348
-0.00346592
-0.00399001
-0.00298711
-0.00470639
-0.00522293
-0.00470639
-0.00522293
-0.00621683
-0.00672739
-0.00621683
-0.00672739
-0.00804208
-0.00854791
-0.00804208
-0.00854791
-0.0102276
-0.0107297
-0.0102276
-0.0107297
-0.0128157
-0.0133149
-0.0128157
-0.0133149
-0.0158408
-0.0163377
-0.0158408
-0.0163377
-0.0193218
-0.019817
-0.0193218
-0.019817
-0.0232552
-0.023749
-0.0232552
-0.023749
-0.0276057
-0.0280985
-0.0276057
-0.0280985
-0.0322979
-0.03279
-0.0322979
-0.03279
-0.00465397
-0.00367419
-0.00465397
-0.00367419
-0.00586847
-0.00586847
-0.00735836
-0.00735836
-0.00916735
-0.00916735
-0.01134
-0.01134
-0.0139181
-0.0139181
-0.0169351
-0.0169351
-0.02041
-0.02041
-0.0243386
-0.0243386
-0.0286853
-0.0286853
-0.0333748
-0.0333748
-0.00549377
-0.00455534
-0.00549377
-0.00455534
-0.00667468
-0.00667468
-0.00813798
-0.00813798
-0.00992598
-0.00992598
-0.012082
-0.012082
-0.014647
-0.014647
-0.0176537
-0.0176537
-0.0211204
-0.0211204
-0.0250426
-0.0250426
-0.0293844
-0.0293844
-0.0340701
-0.0340701
-0.00655501
-0.00567987
-0.00655501
-0.00567987
-0.00768156
-0.00768156
-0.00910161
-0.00910161
-0.0108555
-0.0108555
-0.0129847
-0.0129847
-0.0155285
-0.0155285
-0.0185184
-0.0185184
-0.021972
-0.021972
-0.0258839
-0.0258839
-0.0302177
-0.0302177
-0.0348972
-0.0348972
-0.00789423
-0.00710325
-0.00789423
-0.00710325
-0.00893955
-0.00893955
-0.0102935
-0.0102935
-0.0119954
-0.0119954
-0.0140837
-0.0140837
-0.0165952
-0.0165952
-0.0195598
-0.0195598
-0.0229935
-0.0229935
-0.0268897
-0.0268897
-0.0312113
-0.0312113
-0.0358815
-0.0358815
-0.00957885
-0.00888115
-0.00957885
-0.00888115
-0.0105121
-0.0105121
-0.0117692
-0.0117692
-0.0133944
-0.0133944
-0.0154227
-0.0154227
-0.0178872
-0.0178872
-0.0208149
-0.0208149
-0.0242195
-0.0242195
-0.0280931
-0.0280931
-0.032397
-0.032397
-0.0370536
-0.0370536
-0.0116831
-0.0110617
-0.0116831
-0.0110617
-0.0124773
-0.0124773
-0.0135993
-0.0135993
-0.0151142
-0.0151142
-0.0170564
-0.0170564
-0.0194537
-0.0194537
-0.0223289
-0.0223289
-0.0256924
-0.0256924
-0.0295338
-0.0295338
-0.0338127
-0.0338127
-0.0384501
-0.0384501
-0.01428
-0.01368
-0.01428
-0.01368
-0.0149267
-0.0149267
-0.0158722
-0.0158722
-0.0172326
-0.0172326
-0.0190527
-0.0190527
-0.0213556
-0.0213556
-0.0241573
-0.0241573
-0.0274634
-0.0274634
-0.0312602
-0.0312602
-0.0355044
-0.0355044
-0.0401152
-0.0401152
-0.021498
-0.0198483
-0.021498
-0.0198483
-0.0236686
-0.0236686
-0.0263685
-0.0263685
-0.0295957
-0.0295957
-0.0333312
-0.0333312
-0.037528
-0.037528
-0.0245018
-0.0230846
-0.0245018
-0.0230846
-0.0264887
-0.0264887
-0.0290476
-0.0290476
-0.0321667
-0.0321667
-0.0358187
-0.0358187
-0.0399512
-0.0399512
-0.0282032
-0.027089
-0.0282032
-0.027089
-0.0299374
-0.0299374
-0.0323017
-0.0323017
-0.0352727
-0.0352727
-0.0388114
-0.0388114
-0.0428571
-0.0428571
-0.0327744
-0.0320243
-0.0327744
-0.0320243
-0.034171
-0.034171
-0.0362667
-0.0362667
-0.0390341
-0.0390341
-0.0424189
-0.0424189
-0.0463476
-0.0463476
-1.50232e-19
-2.12226e-19
-2.12328e-19
-1.5034e-19
1
1
1
1
-2.88184e-19
-2.8828e-19
1
1
-3.80671e-19
-3.80762e-19
1
1
-4.92435e-19
-4.92519e-19
1
1
-6.26259e-19
-6.26335e-19
1
1
-7.84738e-19
-7.84806e-19
1
1
-9.69966e-19
-9.70026e-19
1
1
-1.18312e-18
-1.18317e-18
1
1
-1.42397e-18
-1.42401e-18
1
1
-1.69036e-18
-1.69039e-18
1
1
-1.97768e-18
-1.97769e-18
1
1
-2.1251e-19
-1.50535e-19
1
1
-2.8845e-19
1
-3.80919e-19
1
-4.92664e-19
1
-6.26466e-19
1
-7.84923e-19
1
-9.70127e-19
1
-1.18326e-18
1
-1.42408e-18
1
-1.69044e-18
1
-1.97772e-18
1
-2.12792e-19
-1.5084e-19
1
1
-2.88709e-19
1
-3.81157e-19
1
-4.9288e-19
1
-6.26661e-19
1
-7.85096e-19
1
-9.70276e-19
1
-1.18338e-18
1
-1.42418e-18
1
-1.6905e-18
1
-1.97776e-18
1
-2.13203e-19
-1.5129e-19
1
1
-2.89083e-19
1
-3.81496e-19
1
-4.93187e-19
1
-6.26935e-19
1
-7.85337e-19
1
-9.70483e-19
1
-1.18355e-18
1
-1.42431e-18
1
-1.6906e-18
1
-1.97782e-18
1
-2.13782e-19
-1.5192e-19
1
1
-2.89605e-19
1
-3.81965e-19
1
-4.93607e-19
1
-6.27308e-19
1
-7.85662e-19
1
-9.70761e-19
1
-1.18378e-18
1
-1.42449e-18
1
-1.69073e-18
1
-1.97789e-18
1
-2.14579e-19
-1.52769e-19
1
1
-2.90319e-19
1
-3.82601e-19
1
-4.94171e-19
1
-6.27805e-19
1
-7.86094e-19
1
-9.71128e-19
1
-1.18408e-18
1
-1.42472e-18
1
-1.69089e-18
1
-1.97798e-18
1
-2.15646e-19
-1.53861e-19
1
1
-2.91284e-19
1
-3.83453e-19
1
-4.9492e-19
1
-6.28459e-19
1
-7.8666e-19
1
-9.71607e-19
1
-1.18447e-18
1
-1.42503e-18
1
-1.69111e-18
1
-1.9781e-18
1
-2.17032e-19
-1.552e-19
1
1
-2.92568e-19
1
-3.84586e-19
1
-4.95906e-19
1
-6.29314e-19
1
-7.87393e-19
1
-9.72224e-19
1
-1.18498e-18
1
-1.42542e-18
1
-1.69138e-18
1
-1.97826e-18
1
-6.30425e-19
-4.972e-19
1
1
-7.88339e-19
1
-9.73015e-19
1
-1.18562e-18
1
-1.42591e-18
1
-1.69172e-18
1
-6.31867e-19
-4.98893e-19
1
1
-7.89555e-19
1
-9.74026e-19
1
-1.18643e-18
1
-1.42654e-18
1
-1.69216e-18
1
-6.33736e-19
-5.01096e-19
1
1
-7.91118e-19
1
-9.75314e-19
1
-1.18747e-18
1
-1.42733e-18
1
-1.69271e-18
1
-6.36158e-19
-5.03932e-19
1
1
-7.93128e-19
1
-9.76956e-19
1
-1.18878e-18
1
-1.42832e-18
1
-1.6934e-18
1
1
0
0
1
1
0
0
1
0
0
0
0
0
0
0
0
0
0
0
0
0
0
0
0
0
0
0
0
0
0
0
0
0
0
0
0
0
0
0
0
0
0
0
0
1
1
1
1
0
1
0
1
0
0
0
0
0
0
0
0
0
0
0
0
0
0
0
0
0
0
1
1
0
1
0
1
0
0
0
0
0
0
0
0
0
0
0
0
0
0
0
0
0
0
1
1
0
1
0
1
0
0
0
0
0
0
0
0
0
0
0
0
0
0
0
0
0
0
1
1
0
1
0
1
0
0
0
0
0
0
0
0
0
0
0
0
0
0
0
0
0
0
1
1
0
1
0
1
0
0
0
0
0
0
0
0
0
0
0
0
0
0
0
0
0
0
1
1
0
1
0
1
0
0
0
0
0
0
0
0
0
0
0
0
0
0
0
0
0
0
1
1
1
1
1
1
1
1
1
1
1
1
0
0
0
0
0
0
0
0
0
0
1
1
1
1
0
1
0
1
0
0
0
0
0
0
0
0
1
1
0
1
0
1
0
0
0
0
0
0
0
0
1
1
0
1
0
1
0
0
0
0
0
0
0
0
1
1
1
1
1
1
1
1
1
1
1
1
1
1
1
1
2
0
0
0
0
0
0
0
0
0
2
2
0
0
0
0
0
0
0
0
0
2
2
0
0
0
0
0
0
0
0
0
2
2
0
0
0
0
0
0
0
0
0
2
2
0
0
0
0
0
0
0
0
0
2
2
0
0
0
0
0
0
0
0
0
2
2
0
0
0
0
0
0
0
0
0
2
4
2
2
2
0
0
0
0
0
0
4
2
0
0
0
0
2
2
0
0
0
0
2
2
0
0
0
0
2
4
2
2
2
2
4
1	2	3	4	5	6	7	8	
2	9	10	3	6	11	12	7	
9	13	14	10	11	15	16	12	
13	17	18	14	15	19	20	16	
17	21	22	18	19	23	24	20	
21	25	26	22	23	27	28	24	
25	29	30	26	27	31	32	28	
29	33	34	30	31	35	36	32	
33	37	38	34	35	39	40	36	
37	41	42	38	39	43	44	40	
41	45	46	42	43	47	48	44	
4	3	49	50	8	7	51	52	
3	10	53	49	7	12	54	51	
10	14	55	53	12	16	56	54	
14	18	57	55	16	20	58	56	
18	22	59	57	20	24	60	58	
22	26	61	59	24	28	62	60	
26	30	63	61	28	32	64	62	
30	34	65	63	32	36	66	64	
34	38	67	65	36	40	68	66	
38	42	69	67	40	44	70	68	
42	46	71	69	44	48	72	70	
50	49	73	74	52	51	75	76	
49	53	77	73	51	54	78	75	
53	55	79	77	54	56	80	78	
55	57	81	79	56	58	82	80	
57	59	83	81	58	60	84	82	
59	61	85	83	60	62	86	84	
61	63	87	85	62	64	88	86	
63	65	89	87	64	66	90	88	
65	67	91	89	66	68	92	90	
67	69	93	91	68	70	94	92	
69	71	95	93	70	72	96	94	
74	73	97	98	76	75	99	100	
73	77	101	97	75	78	102	99	
77	79	103	101	78	80	104	102	
79	81	105	103	80	82	106	104	
81	83	107	105	82	84	108	106	
83	85	109	107	84	86	110	108	
85	87	111	109	86	88	112	110	
87	89	113	111	88	90	114	112	
89	91	115	113	90	92	116	114	
91	93	117	115	92	94	118	116	
93	95	119	117	94	96	120	118	
98	97	121	122	100	99	123	124	
97	101	125	121	99	102	126	123	
101	103	127	125	102	104	128	126	
103	105	129	127	104	106	130	128	
105	107	131	129	106	108	132	130	
107	109	133	131	108	110	134	132	
109	111	135	133	110	112	136	134	
111	113	137	135	112	114	138	136	
113	115	139	137	114	116	140	138	
115	117	141	139	116	118	142	140	
117	119	143	141	118	120	144	142	
122	121	145	146	124	123	147	148	
121	125	149	145	123	126	150	147	
125	127	151	149	126	128	152	150	
127	129	153	151	128	130	154	152	
129	131	155	153	130	132	156	154	
131	133	157	155	132	134	158	156	
133	135	159	157	134	136	160	158	
135	137	161	159	136	138	162	160	
137	139	163	161	138	140	164	162	
139	141	165	163	140	142	166	164	
141	143	167	165	142	144	168	166	
146	145	169	170	148	147	171	172	
145	149	173	169	147	150	174	171	
149	151	175	173	150	152	176	174	
151	153	177	175	152	154	178	176	
153	155	179	177	154	156	180	178	
155	157	181	179	156	158	182	180	
157	159	183	181	158	160	184	182	
159	161	185	183	160	162	186	184	
161	163	187	185	162	164	188	186	
163	165	189	187	164	166	190	188	
165	167	191	189	166	168	192	190	
170	169	193	194	172	171	195	196	
169	173	197	193	171	174	198	195	
173	175	199	197	174	176	200	198	
175	177	201	199	176	178	202	200	
177	179	203	201	178	180	204	202	
179	181	205	203	180	182	206	204	
181	183	207	205	182	184	208	206	
183	185	209	207	184	186	210	208	
185	187	211	209	186	188	212	210	
187	189	213	211	188	190	214	212	
189	191	215	213	190	192	216	214	
201	203	217	218	202	204	219	220	
203	205	221	217	204	206	222	219	
205	207	223	221	206	208	224	222	
207	209	225	223	208	210	226	224	
209	211	227	225	210	212	228	226	
211	213	229	227	212	214	230	228	
218	217	231	232	220	219	233	234	
217	221	235	231	219	222	236	233	
221	223	237	235	222	224	238	236	
223	225	239	237	224	226	240	238	
225	227	241	239	226	228	242	240	
227	229	243	241	228	230	244	242	
232	231	245	246	234	233	247	248	
231	235	249	245	233	236	250	247	
235	237	251	249	236	238	252	250	
237	239	253	251	238	240	254	252	
239	241	255	253	240	242	256	254	
241	243	257	255	242	244	258	256	
246	245	259	260	248	247	261	262	
245	249	263	259	247	250	264	261	
249	251	265	263	250	252	266	264	
251	253	267	265	252	254	268	266	
253	255	269	267	254	256	270	268	
255	257	271	269	256	258	272	270	
ZONE T="element1"
Nodes=264, Elements=109, ZONETYPE=FETETRAHEDRON
DATAPACKING=BLOCK
VARLOCATION=([5]=CELLCENTERED)
0.739634
0.691114
0.691157
0.739679
0.739634
0.691114
0.691157
0.739679
0.638146
0.638187
0.638146
0.638187
0.581652
0.581689
0.581652
0.581689
0.522872
0.522905
0.522872
0.522905
0.463268
0.463296
0.463268
0.463296
0.404391
0.404412
0.404391
0.404412
0.34772
0.347733
0.34772
0.347733
0.294523
0.294527
0.294523
0.294527
0.245761
0.245754
0.245761
0.245754
0.202041
0.20202
0.202041
0.20202
0.163622
0.163586
0.163622
0.163586
0.691206
0.73973
0.691206
0.73973
0.638233
0.638233
0.581732
0.581732
0.522943
0.522943
0.463329
0.463329
0.404438
0.404438
0.34775
0.34775
0.294533
0.294533
0.245748
0.245748
0.201999
0.201999
0.163548
0.163548
0.691261
0.739788
0.691261
0.739788
0.638286
0.638286
0.581781
0.581781
0.522988
0.522988
0.463368
0.463368
0.40447
0.40447
0.347772
0.347772
0.294543
0.294543
0.245743
0.245743
0.201977
0.201977
0.163507
0.163507
0.691325
0.739854
0.691325
0.739854
0.638347
0.638347
0.581839
0.581839
0.523041
0.523041
0.463415
0.463415
0.404509
0.404509
0.3478
0.3478
0.294557
0.294557
0.245741
0.245741
0.201955
0.201955
0.163461
0.163461
0.691398
0.739929
0.691398
0.739929
0.638418
0.638418
0.581907
0.581907
0.523104
0.523104
0.463471
0.463471
0.404555
0.404555
0.347835
0.347835
0.294577
0.294577
0.245741
0.245741
0.201932
0.201932
0.163411
0.163411
0.691483
0.740016
0.691483
0.740016
0.6385
0.6385
0.581986
0.581986
0.523178
0.523178
0.463538
0.463538
0.404612
0.404612
0.347878
0.347878
0.294602
0.294602
0.245744
0.245744
0.201909
0.201909
0.163356
0.163356
0.691581
0.740115
0.691581
0.740115
0.638595
0.638595
0.582078
0.582078
0.523265
0.523265
0.463618
0.463618
0.404681
0.404681
0.347931
0.347931
0.294635
0.294635
0.245752
0.245752
0.201886
0.201886
0.163295
0.163295
0.691693
0.740229
0.691693
0.740229
0.638706
0.638706
0.582186
0.582186
0.523368
0.523368
0.463712
0.463712
0.404763
0.404763
0.347996
0.347996
0.294678
0.294678
0.245766
0.245766
0.201864
0.201864
0.163229
0.163229
0.783749
0.740359
0.783879
0.783749
0.740359
0.783879
0.691823
0.691823
0.638835
0.638835
0.582313
0.582313
0.52349
0.52349
0.463826
0.463826
0.404863
0.404863
0.348077
0.348077
0.294733
0.294733
0.245787
0.245787
0.201844
0.201844
0.163159
0.163159
0.740507
0.784025
0.740507
0.784025
0.691973
0.691973
0.638985
0.638985
0.582461
0.582461
0.523634
0.523634
0.46396
0.46396
0.404983
0.404983
0.348176
0.348176
0.294802
0.294802
-0.0322979
-0.0372106
-0.0377021
-0.03279
-0.0322979
-0.0372106
-0.0377021
-0.03279
-0.0421729
-0.0426641
-0.0421729
-0.0426641
-0.0469683
-0.0474595
-0.0469683
-0.0474595
-0.0513467
-0.0518378
-0.0513467
-0.0518378
-0.055047
-0.0555383
-0.055047
-0.0555383
-0.0578299
-0.0583216
-0.0578299
-0.0583216
-0.0595135
-0.0600055
-0.0595135
-0.0600055
-0.0600014
-0.0604939
-0.0600014
-0.0604939
-0.0592957
-0.0597886
-0.0592957
-0.0597886
-0.0574895
-0.0579827
-0.0574895
-0.0579827
-0.054743
-0.0552363
-0.054743
-0.0552363
-0.0382855
-0.0333748
-0.0382855
-0.0333748
-0.0432464
-0.0432464
-0.0480411
-0.0480411
-0.0524192
-0.0524192
-0.0561198
-0.0561198
-0.0589035
-0.0589035
-0.0605882
-0.0605882
-0.0610775
-0.0610775
-0.0603735
-0.0603735
-0.058569
-0.058569
-0.055824
-0.055824
-0.0389779
-0.0340701
-0.0389779
-0.0340701
-0.0439369
-0.0439369
-0.0487303
-0.0487303
-0.0531078
-0.0531078
-0.0568083
-0.0568083
-0.0595926
-0.0595926
-0.0612785
-0.0612785
-0.0617697
-0.0617697
-0.061068
-0.061068
-0.0592663
-0.0592663
-0.0565248
-0.0565248
-0.0398004
-0.0348972
-0.0398004
-0.0348972
-0.0447561
-0.0447561
-0.0495473
-0.0495473
-0.0539236
-0.0539236
-0.057624
-0.057624
-0.0604092
-0.0604092
-0.0620969
-0.0620969
-0.0625909
-0.0625909
-0.0618931
-0.0618931
-0.0600963
-0.0600963
-0.0573607
-0.0573607
-0.0407777
-0.0358815
-0.0407777
-0.0358815
-0.0457283
-0.0457283
-0.0505162
-0.0505162
-0.0548907
-0.0548907
-0.0585908
-0.0585908
-0.0613771
-0.0613771
-0.0630675
-0.0630675
-0.0635657
-0.0635657
-0.0628738
-0.0628738
-0.0610847
-0.0610847
-0.0583585
-0.0583585
-0.0419395
-0.0370536
-0.0419395
-0.0370536
-0.0468827
-0.0468827
-0.0516657
-0.0516657
-0.0560375
-0.0560375
-0.0597371
-0.0597371
-0.062525
-0.062525
-0.0642192
-0.0642192
-0.0647236
-0.0647236
-0.0640402
-0.0640402
-0.0622623
-0.0622623
-0.0595501
-0.0595501
-0.0433216
-0.0384501
-0.0433216
-0.0384501
-0.0482543
-0.0482543
-0.0530303
-0.0530303
-0.0573983
-0.0573983
-0.061097
-0.061097
-0.0638871
-0.0638871
-0.0655866
-0.0655866
-0.0660995
-0.0660995
-0.0654282
-0.0654282
-0.0636662
-0.0636662
-0.0609741
-0.0609741
-0.0449667
-0.0401152
-0.0449667
-0.0401152
-0.0498849
-0.0498849
-0.0546512
-0.0546512
-0.0590139
-0.0590139
-0.0627114
-0.0627114
-0.0655043
-0.0655043
-0.067211
-0.067211
-0.0677356
-0.0677356
-0.067081
-0.067081
-0.065341
-0.065341
-0.0626768
-0.0626768
-0.0355044
-0.0421024
-0.037528
-0.0355044
-0.0421024
-0.037528
-0.0469265
-0.0469265
-0.051825
-0.051825
-0.056578
-0.056578
-0.0609333
-0.0609333
-0.064629
-0.064629
-0.0674258
-0.0674258
-0.0691421
-0.0691421
-0.0696825
-0.0696825
-0.0690505
-0.0690505
-0.0673405
-0.0673405
-0.0647146
-0.0647146
-0.0444765
-0.0399512
-0.0444765
-0.0399512
-0.0492636
-0.0492636
-0.0541354
-0.0541354
-0.0588704
-0.0588704
-0.0632157
-0.0632157
-0.0669089
-0.0669089
-0.0697107
-0.0697107
-0.0714398
-0.0714398
-0.0720013
-0.0720013
-1.97768e-18
-2.27849e-18
-2.27849e-18
-1.97769e-18
1
1
1
1
-2.58235e-18
-2.58234e-18
1
1
-2.87598e-18
-2.87596e-18
1
1
-3.14408e-18
-3.14404e-18
1
1
-3.37065e-18
-3.3706e-18
1
1
-3.54106e-18
-3.541e-18
1
1
-3.64415e-18
-3.64408e-18
1
1
-3.67403e-18
-3.67395e-18
1
1
-3.63082e-18
-3.63073e-18
1
1
-3.52022e-18
-3.52014e-18
1
1
-3.35204e-18
-3.35197e-18
1
1
-2.2785e-18
-1.97772e-18
1
1
-2.58232e-18
1
-2.87592e-18
1
-3.14397e-18
1
-3.37051e-18
1
-3.54089e-18
1
-3.64395e-18
1
-3.67381e-18
1
-3.6306e-18
1
-3.52001e-18
1
-3.35185e-18
1
-2.27851e-18
-1.97776e-18
1
1
-2.58229e-18
1
-2.87586e-18
1
-3.14388e-18
1
-3.37039e-18
1
-3.54073e-18
1
-3.64377e-18
1
-3.67362e-18
1
-3.6304e-18
1
-3.51982e-18
1
-3.35168e-18
1
-2.27852e-18
-1.97782e-18
1
1
-2.58226e-18
1
-2.87578e-18
1
-3.14375e-18
1
-3.37021e-18
1
-3.54052e-18
1
-3.64353e-18
1
-3.67336e-18
1
-3.63013e-18
1
-3.51956e-18
1
-3.35144e-18
1
-2.27853e-18
-1.97789e-18
1
1
-2.58221e-18
1
-2.87567e-18
1
-3.14358e-18
1
-3.36998e-18
1
-3.54024e-18
1
-3.64321e-18
1
-3.67301e-18
1
-3.62978e-18
1
-3.51921e-18
1
-3.35113e-18
1
-2.27855e-18
-1.97798e-18
1
1
-2.58215e-18
1
-2.87553e-18
1
-3.14336e-18
1
-3.36969e-18
1
-3.53987e-18
1
-3.64278e-18
1
-3.67255e-18
1
-3.62931e-18
1
-3.51876e-18
1
-3.35071e-18
1
-2.27858e-18
-1.9781e-18
1
1
-2.58208e-18
1
-2.87535e-18
1
-3.14308e-18
1
-3.3693e-18
1
-3.5394e-18
1
-3.64224e-18
1
-3.67197e-18
1
-3.62871e-18
1
-3.51818e-18
1
-3.35017e-18
1
-2.27861e-18
-1.97826e-18
1
1
-2.58198e-18
1
-2.87512e-18
1
-3.14272e-18
1
-3.36882e-18
1
-3.5388e-18
1
-3.64156e-18
1
-3.67122e-18
1
-3.62795e-18
1
-3.51744e-18
1
-3.34949e-18
1
-1.69138e-18
-1.97845e-18
-1.69172e-18
1
1
1
-2.27865e-18
1
-2.58186e-18
1
-2.87484e-18
1
-3.14227e-18
1
-3.36821e-18
1
-3.53805e-18
1
-3.64069e-18
1
-3.67029e-18
1
-3.62699e-18
1
-3.5165e-18
1
-3.34863e-18
1
-1.9787e-18
-1.69216e-18
1
1
-2.2787e-18
1
-2.58171e-18
1
-2.87448e-18
1
-3.1417e-18
1
-3.36744e-18
1
-3.53711e-18
1
-3.63961e-18
1
-3.66911e-18
1
1
0
0
1
1
0
0
1
0
0
0
0
0
0
0
0
0
0
0
0
0
0
0
0
0
0
0
0
0
0
0
0
0
0
0
0
0
0
0
0
0
0
0
0
1
1
1
1
0
1
0
1
0
0
0
0
0
0
0
0
0
0
0
0
0
0
0
0
0
0
1
1
0
1
0
1
0
0
0
0
0
0
0
0
0
0
0
0
0
0
0
0
0
0
1
1
0
1
0
1
0
0
0
0
0
0
0
0
0
0
0
0
0
0
0
0
0
0
1
1
0
1
0
1
0
0
0
0
0
0
0
0
0
0
0
0
0
0
0
0
0
0
1
1
0
1
0
1
0
0
0
0
0
0
0
0
0
0
0
0
0
0
0
0
0
0
1
1
0
1
0
1
0
0
0
0
0
0
0
0
0
0
0
0
0
0
0
0
0
0
1
1
0
1
0
1
0
0
0
0
0
0
0
0
0
0
0
0
0
0
0
0
0
0
1
1
1
0
1
1
0
1
0
0
0
0
0
0
0
0
0
0
0
0
0
0
1
1
1
1
1
1
1
1
1
1
1
1
1
1
1
1
1
1
1
1
1
1
1
1
1
1
1
1
2
0
0
0
0
0
0
0
0
0
2
2
0
0
0
0
0
0
0
0
0
2
2
0
0
0
0
0
0
0
0
0
2
2
0
0
0
0
0
0
0
0
0
2
2
0
0
0
0
0
0
0
0
0
2
2
0
0
0
0
0
0
0
0
0
2
2
0
0
0
0
0
0
0
0
0
2
2
0
0
0
0
0
0
0
0
0
2
4
0
0
0
0
0
0
0
0
2
2
4
4
2
2
2
2
2
2
2
4
1	2	3	4	5	6	7	8	
2	9	10	3	6	11	12	7	
9	13	14	10	11	15	16	12	
13	17	18	14	15	19	20	16	
17	21	22	18	19	23	24	20	
21	25	26	22	23	27	28	24	
25	29	30	26	27	31	32	28	
29	33	34	30	31	35	36	32	
33	37	38	34	35	39	40	36	
37	41	42	38	39	43	44	40	
41	45	46	42	43	47	48	44	
4	3	49	50	8	7	51	52	
3	10	53	49	7	12	54	51	
10	14	55	53	12	16	56	54	
14	18	57	55	16	20	58	56	
18	22	59	57	20	24	60	58	
22	26	61	59	24	28	62	60	
26	30	63	61	28	32	64	62	
30	34	65	63	32	36	66	64	
34	38	67	65	36	40	68	66	
38	42	69	67	40	44	70	68	
42	46	71	69	44	48	72	70	
50	49	73	74	52	51	75	76	
49	53	77	73	51	54	78	75	
53	55	79	77	54	56	80	78	
55	57	81	79	56	58	82	80	
57	59	83	81	58	60	84	82	
59	61	85	83	60	62	86	84	
61	63	87	85	62	64	88	86	
63	65	89	87	64	66	90	88	
65	67	91	89	66	68	92	90	
67	69	93	91	68	70	94	92	
69	71	95	93	70	72	96	94	
74	73	97	98	76	75	99	100	
73	77	101	97	75	78	102	99	
77	79	103	101	78	80	104	102	
79	81	105	103	80	82	106	104	
81	83	107	105	82	84	108	106	
83	85	109	107	84	86	110	108	
85	87	111	109	86	88	112	110	
87	89	113	111	88	90	114	112	
89	91	115	113	90	92	116	114	
91	93	117	115	92	94	118	116	
93	95	119	117	94	96	120	118	
98	97	121	122	100	99	123	124	
97	101	125	121	99	102	126	123	
101	103	127	125	102	104	128	126	
103	105	129	127	104	106	130	128	
105	107	131	129	106	108	132	130	
107	109	133	131	108	110	134	132	
109	111	135	133	110	112	136	134	
111	113	137	135	112	114	138	136	
113	115	139	137	114	116	140	138	
115	117	141	139	116	118	142	140	
117	119	143	141	118	120	144	142	
122	121	145	146	124	123	147	148	
121	125	149	145	123	126	150	147	
125	127	151	149	126	128	152	150	
127	129	153	151	128	130	154	152	
129	131	155	153	130	132	156	154	
131	133	157	155	132	134	158	156	
133	135	159	157	134	136	160	158	
135	137	161	159	136	138	162	160	
137	139	163	161	138	140	164	162	
139	141	165	163	140	142	166	164	
141	143	167	165	142	144	168	166	
146	145	169	170	148	147	171	172	
145	149	173	169	147	150	174	171	
149	151	175	173	150	152	176	174	
151	153	177	175	152	154	178	176	
153	155	179	177	154	156	180	178	
155	157	181	179	156	158	182	180	
157	159	183	181	158	160	184	182	
159	161	185	183	160	162	186	184	
161	163	187	185	162	164	188	186	
163	165	189	187	164	166	190	188	
165	167	191	189	166	168	192	190	
170	169	193	194	172	171	195	196	
169	173	197	193	171	174	198	195	
173	175	199	197	174	176	200	198	
175	177	201	199	176	178	202	200	
177	179	203	201	178	180	204	202	
179	181	205	203	180	182	206	204	
181	183	207	205	182	184	208	206	
183	185	209	207	184	186	210	208	
185	187	211	209	186	188	212	210	
187	189	213	211	188	190	214	212	
189	191	215	213	190	192	216	214	
217	194	218	219	220	196	221	222	
194	193	223	218	196	195	224	221	
193	197	225	223	195	198	226	224	
197	199	227	225	198	200	228	226	
199	201	229	227	200	202	230	228	
201	203	231	229	202	204	232	230	
203	205	233	231	204	206	234	232	
205	207	235	233	206	208	236	234	
207	209	237	235	208	210	238	236	
209	211	239	237	210	212	240	238	
211	213	241	239	212	214	242	240	
213	215	243	241	214	216	244	242	
219	218	245	246	222	221	247	248	
218	223	249	245	221	224	250	247	
223	225	251	249	224	226	252	250	
225	227	253	251	226	228	254	252	
227	229	255	253	228	230	256	254	
229	231	257	255	230	232	258	256	
231	233	259	257	232	234	260	258	
233	235	261	259	234	236	262	260	
235	237	263	261	236	238	264	262	
ZONE T="element2"
Nodes=262, Elements=107, ZONETYPE=FETETRAHEDRON
DATAPACKING=BLOCK
VARLOCATION=([5]=CELLCENTERED)
0.296716
0.247256
0.247867
0.297367
0.296716
0.247256
0.247867
0.297367
0.202666
0.20323
0.202666
0.20323
0.163185
0.163668
0.163185
0.163668
0.585651
0.526948
0.527719
0.586319
0.585651
0.526948
0.527719
0.586319
0.467282
0.468117
0.467282
0.468117
0.408187
0.409056
0.408187
0.409056
0.351128
0.352011
0.351128
0.352011
0.298256
0.298256
0.248761
0.248761
0.204122
0.204122
0.164478
0.164478
0.528609
0.587025
0.528609
0.587025
0.469129
0.469129
0.410155
0.410155
0.353181
0.353181
0.299499
0.299499
0.250089
0.250089
0.205493
0.205493
0.165699
0.165699
0.129459
0.130112
0.129459
0.130112
0.098265
0.0978034
0.098265
0.0978034
0.741356
0.694699
0.693899
0.739201
0.741356
0.694699
0.693899
0.739201
0.642853
0.642963
0.642853
0.642963
0.587682
0.587682
0.529605
0.529605
0.470357
0.470357
0.411566
0.411566
0.354767
0.354767
0.301279
0.301279
0.252055
0.252055
0.207499
0.207499
0.167333
0.167333
0.130744
0.130744
0.0968155
0.0968155
0.691623
0.735118
0.691623
0.735118
0.642278
0.642278
0.588053
0.588053
0.530635
0.530635
0.471838
0.471838
0.413416
0.413416
0.356981
0.356981
0.303861
0.303861
0.254892
0.254892
0.210193
0.210193
0.169184
0.169184
0.13098
0.13098
0.0948704
0.0948704
0.686997
0.729073
0.686997
0.729073
0.639877
0.639877
0.587568
0.587568
0.531467
0.531467
0.473577
0.473577
0.415883
0.415883
0.360111
0.360111
0.307533
0.307533
0.2587
0.2587
0.213364
0.213364
0.17079
0.17079
0.130277
0.130277
0.0914388
0.0914388
0.679979
0.722307
0.679979
0.722307
0.634667
0.634667
0.585094
0.585094
0.53145
0.53145
0.47541
0.47541
0.419124
0.419124
0.36442
0.36442
0.312377
0.312377
0.26318
0.26318
0.216377
0.216377
0.171401
0.171401
0.127916
0.127916
0.0858629
0.0858629
0.672435
0.717023
0.672435
0.717023
0.626933
0.626933
0.579511
0.579511
0.529285
0.529285
0.476559
0.476559
0.422805
0.422805
0.369583
0.369583
0.317727
0.317727
0.267314
0.267314
0.218117
0.218117
0.169994
0.169994
0.122998
0.122998
0.0773252
0.0773252
0.667716
0.715753
0.667716
0.715753
0.619909
0.619909
0.572234
0.572234
0.524176
0.524176
0.475082
0.475082
0.424693
0.424693
0.373276
0.373276
0.321265
0.321265
0.26902
0.26902
0.216866
0.216866
0.16517
0.16517
0.114329
0.114329
0.0647489
0.0647489
0.420218
0.469582
0.420218
0.469582
0.369816
0.369816
0.317846
0.317846
0.264308
0.264308
0.209689
0.209689
0.154716
0.154716
0.100133
0.100133
0.0466006
0.0466006
-0.117375
-0.117757
-0.130163
-0.129438
-0.117375
-0.117757
-0.130163
-0.129438
-0.117418
-0.130284
-0.117418
-0.130284
-0.116544
-0.129965
-0.116544
-0.129965
-0.115342
-0.119188
-0.133425
-0.129773
-0.115342
-0.119188
-0.133425
-0.129773
-0.122728
-0.136898
-0.122728
-0.136898
-0.125712
-0.139933
-0.125712
-0.139933
-0.12797
-0.142365
-0.12797
-0.142365
-0.144139
-0.144139
-0.145314
-0.145314
-0.146023
-0.146023
-0.146363
-0.146363
-0.150835
-0.147462
-0.150835
-0.147462
-0.154206
-0.154206
-0.157304
-0.157304
-0.159964
-0.159964
-0.162143
-0.162143
-0.163906
-0.163906
-0.165336
-0.165336
-0.16638
-0.16638
-0.146239
-0.166714
-0.146239
-0.166714
-0.145291
-0.165788
-0.145291
-0.165788
-0.141458
-0.142275
-0.166176
-0.167105
-0.141458
-0.142275
-0.166176
-0.167105
-0.144455
-0.167092
-0.144455
-0.167092
-0.169314
-0.169314
-0.172257
-0.172257
-0.175467
-0.175467
-0.178639
-0.178639
-0.181603
-0.181603
-0.184321
-0.184321
-0.186822
-0.186822
-0.189055
-0.189055
-0.190717
-0.190717
-0.191233
-0.191233
-0.189945
-0.189945
-0.196653
-0.199668
-0.196653
-0.199668
-0.195686
-0.195686
-0.196629
-0.196629
-0.19886
-0.19886
-0.201794
-0.201794
-0.205043
-0.205043
-0.208408
-0.208408
-0.21181
-0.21181
-0.215147
-0.215147
-0.218103
-0.218103
-0.220071
-0.220071
-0.220312
-0.220312
-0.218175
-0.218175
-0.235698
-0.240391
-0.235698
-0.240391
-0.232419
-0.232419
-0.231375
-0.231375
-0.232367
-0.232367
-0.234769
-0.234769
-0.238053
-0.238053
-0.241899
-0.241899
-0.246055
-0.246055
-0.250125
-0.250125
-0.253437
-0.253437
-0.255157
-0.255157
-0.254524
-0.254524
-0.250991
-0.250991
-0.285002
-0.290019
-0.285002
-0.290019
-0.279979
-0.279979
-0.27653
-0.27653
-0.275528
-0.275528
-0.276853
-0.276853
-0.279922
-0.279922
-0.284121
-0.284121
-0.288787
-0.288787
-0.293077
-0.293077
-0.29602
-0.29602
-0.296726
-0.296726
-0.29453
-0.29453
-0.289007
-0.289007
-0.345587
-0.349148
-0.345587
-0.349148
-0.340674
-0.340674
-0.335836
-0.335836
-0.332655
-0.332655
-0.332104
-0.332104
-0.334107
-0.334107
-0.337809
-0.337809
-0.342
-0.342
-0.345408
-0.345408
-0.346917
-0.346917
-0.345688
-0.345688
-0.341166
-0.341166
-0.333006
-0.333006
-0.418399
-0.418769
-0.418399
-0.418769
-0.415975
-0.415975
-0.412369
-0.412369
-0.408749
-0.408749
-0.406319
-0.406319
-0.405752
-0.405752
-0.406762
-0.406762
-0.408263
-0.408263
-0.408907
-0.408907
-0.407517
-0.407517
-0.403238
-0.403238
-0.395506
-0.395506
-0.383965
-0.383965
-0.499263
-0.502772
-0.499263
-0.502772
-0.495424
-0.495424
-0.491308
-0.491308
-0.486459
-0.486459
-0.480038
-0.480038
-0.471143
-0.471143
-0.459026
-0.459026
-0.443159
-0.443159
-3.64273e-18
-3.59855e-18
-3.5913e-18
-3.63572e-18
1
1
1
1
-3.4886e-18
-3.48146e-18
1
1
-3.32267e-18
-3.31603e-18
1
1
-2.86412e-18
-3.12551e-18
-3.12136e-18
-2.86145e-18
1
1
1
1
-3.34569e-18
-3.34014e-18
1
1
-3.51039e-18
-3.5036e-18
1
1
-3.60889e-18
-3.60109e-18
1
1
-3.62723e-18
1
-3.5825e-18
1
-3.47281e-18
1
-3.30805e-18
1
-3.11629e-18
-2.85817e-18
1
1
-3.33339e-18
1
-3.49533e-18
1
-3.59161e-18
1
-3.6169e-18
1
-3.5718e-18
1
-3.46232e-18
1
-3.29849e-18
1
-3.10016e-18
-3.09222e-18
1
1
-2.86107e-18
-2.85515e-18
1
1
-1.99084e-18
-2.28106e-18
-2.2818e-18
-1.99441e-18
1
1
1
1
-2.57467e-18
-2.57292e-18
1
1
-2.85412e-18
1
-3.11005e-18
1
-3.3251e-18
1
-3.48522e-18
1
-3.57999e-18
1
-3.60425e-18
1
-3.55873e-18
1
-3.44966e-18
1
-3.28719e-18
1
-3.08307e-18
1
-2.84847e-18
1
-2.28286e-18
-1.99907e-18
1
1
-2.57073e-18
1
-2.84904e-18
1
-3.1023e-18
1
-3.31485e-18
1
-3.47273e-18
1
-3.56566e-18
1
-3.58868e-18
1
-3.5428e-18
1
-3.43456e-18
1
-3.27411e-18
1
-3.07275e-18
1
-2.84105e-18
1
-2.28433e-18
-2.00475e-18
1
1
-2.56796e-18
1
-2.84255e-18
1
-3.09248e-18
1
-3.30198e-18
1
-3.45711e-18
1
-3.54782e-18
1
-3.56947e-18
1
-3.52357e-18
1
-3.41689e-18
1
-3.25926e-18
1
-3.06127e-18
1
-2.83287e-18
1
-2.28603e-18
-2.01097e-18
1
1
-2.56437e-18
1
-2.83399e-18
1
-3.07965e-18
1
-3.28538e-18
1
-3.43723e-18
1
-3.52542e-18
1
-3.54595e-18
1
-3.50083e-18
1
-3.39671e-18
1
-3.24274e-18
1
-3.04867e-18
1
-2.8239e-18
1
-2.28742e-18
-2.0171e-18
1
1
-2.55952e-18
1
-2.82245e-18
1
-3.06218e-18
1
-3.26311e-18
1
-3.41127e-18
1
-3.49726e-18
1
-3.51765e-18
1
-3.47459e-18
1
-3.37415e-18
1
-3.22457e-18
1
-3.03489e-18
1
-2.81408e-18
1
-2.28783e-18
-2.02268e-18
1
1
-2.55276e-18
1
-2.80705e-18
1
-3.0382e-18
1
-3.23242e-18
1
-3.37672e-18
1
-3.46186e-18
1
-3.48406e-18
1
-3.44477e-18
1
-3.34916e-18
1
-3.20467e-18
1
-3.01983e-18
1
-2.80331e-18
1
-3.33266e-18