TTILE = "Vizualisation of the partitioned mesh"
VARIABLES="X","Y","Z","FLAGNODE","FLAGCELL"
ZONE T="element0"
Nodes=2384, Elements=1120, ZONETYPE=FETETRAHEDRON
DATAPACKING=BLOCK
VARLOCATION=([5]=CELLCENTERED)
1.05873
1.10649
1.15931
1.10854
1.05873
1.10649
1.15931
1.10854
1.15127
1.20687
1.15127
1.20687
1.19239
1.25047
1.19239
1.25047
1.22909
1.28928
1.22909
1.28928
1.26052
1.32245
1.26052
1.32245
1.28588
1.34917
1.28588
1.34917
1.30445
1.36874
1.30445
1.36874
1.31569
1.3806
1.31569
1.3806
1.31942
1.38454
1.31942
1.38454
1.3806
1.46062
1.46476
1.3806
1.46062
1.46476
1.36874
1.44815
1.36874
1.44815
1.34917
1.42758
1.34917
1.42758
1.32245
1.39949
1.32245
1.39949
1.28928
1.36461
1.28928
1.36461
1.25047
1.32381
1.25047
1.32381
1.22804
1.17483
1.22804
1.17483
1.27798
1.27798
1.32381
1.32381
1.36461
1.36461
1.39949
1.39949
1.42758
1.42758
1.44815
1.44815
1.46062
1.46062
1.55989
1.56422
1.55989
1.56422
1.54685
1.54685
1.52535
1.52535
1.49603
1.49603
1.45971
1.45971
1.41731
1.41731
1.27798
1.36983
1.27798
1.36983
1.22804
1.31816
1.22804
1.31816
1.17483
1.26302
1.17483
1.26302
1.11904
1.2048
1.11904
1.2048
1.06114
1.14354
1.06114
1.14354
1.00131
1.07901
1.00131
1.07901
0.939473
1.01086
0.939473
1.01086
0.875394
0.938776
0.875394
0.938776
0.808833
0.862632
0.808833
0.862632
0.739703
0.782561
0.739703
0.782561
0.668182
0.699014
0.668182
0.699014
0.594751
0.612767
0.594751
0.612767
0.520173
0.524877
0.520173
0.524877
0.44541
0.436599
0.44541
0.436599
0.371501
0.349255
0.371501
0.349255
0.299416
0.2641
0.299416
0.2641
0.229919
0.182191
0.229919
0.182191
0.163439
0.104295
0.163439
0.104295
0.0999746
0.0308306
0.0999746
0.0308306
0.0390436
-0.0381679
0.0390436
-0.0381679
-0.0202363
-0.103069
-0.0202363
-0.103069
-0.0788273
-0.164628
-0.0788273
-0.164628
-0.137253
-0.223851
-0.137253
-0.223851
-0.195243
-0.281619
-0.195243
-0.281619
-0.251823
-0.338182
-0.251823
-0.338182
-0.305683
-0.392895
-0.305683
-0.392895
-0.355475
-0.444417
-0.355475
-0.444417
1.31816
1.26302
1.31816
1.26302
1.36983
1.36983
1.41731
1.41731
1.45971
1.45971
1.49603
1.49603
1.52535
1.52535
1.54685
1.54685
1.55989
1.55989
1.68374
1.68823
1.68374
1.68823
1.67028
1.67028
1.64813
1.64813
1.618
1.618
1.5808
1.5808
1.53747
1.53747
1.48888
1.48888
1.43564
1.43564
1.37798
1.37798
1.31584
1.31584
1.24891
1.24891
1.17685
1.17685
1.09934
1.09934
1.01627
1.01627
0.927717
0.927717
0.834065
0.834065
0.736015
0.736015
0.634597
0.634597
0.531126
0.531126
0.427113
0.427113
0.324134
0.324134
0.223682
0.223682
0.127048
0.127048
0.0352284
0.0352284
-0.0511108
-0.0511108
-0.131631
-0.131631
-0.206306
-0.206306
-0.275405
-0.275405
-0.339496
-0.339496
-0.399405
-0.399405
-0.456033
-0.456033
-0.509954
-0.509954
-0.560968
-0.560968
1.43564
1.37798
1.43564
1.37798
1.48888
1.48888
1.53747
1.53747
1.5808
1.5808
1.618
1.618
1.64813
1.64813
1.67028
1.67028
1.68374
1.68374
1.83923
1.84377
1.83923
1.84377
1.82565
1.82565
1.80338
1.80338
1.77311
1.77311
1.73564
1.73564
1.69161
1.69161
1.64143
1.64143
1.58521
1.58521
1.52277
1.52277
1.45383
1.45383
1.37809
1.37809
1.29533
1.29533
1.20543
1.20543
1.10846
1.10846
1.00474
1.00474
0.894852
0.894852
0.779714
0.779714
0.660589
0.660589
0.539031
0.539031
0.416795
0.416795
0.295697
0.295697
0.177465
0.177465
0.0636044
0.0636044
-0.0446864
-0.0446864
-0.146547
-0.146547
-0.241438
-0.241438
-0.329097
-0.329097
-0.409491
-0.409491
-0.482786
-0.482786
-0.54935
-0.54935
-0.609753
-0.609753
-0.664717
-0.664717
-0.714876
-0.714876
1.58521
1.52277
1.58521
1.52277
1.64143
1.64143
1.69161
1.69161
1.73564
1.73564
1.77311
1.77311
1.80338
1.80338
1.82565
1.82565
1.83923
1.83923
2.03583
2.04026
2.03583
2.04026
2.02253
2.02253
2.00058
2.00058
1.97038
1.97038
1.93222
1.93222
1.88623
1.88623
1.8323
1.8323
1.77022
1.77022
1.69975
1.69975
1.62066
1.62066
1.53281
1.53281
1.43616
1.43616
1.33077
1.33077
1.21692
1.21692
1.09508
1.09508
0.966054
0.966054
0.830962
0.830962
0.691282
0.691282
0.548799
0.548799
0.405501
0.405501
0.26344
0.26344
0.124571
0.124571
-0.00938284
-0.00938284
-0.137022
-0.137022
-0.257294
-0.257294
-0.369477
-0.369477
-0.473122
-0.473122
-0.567992
-0.567992
-0.654007
-0.654007
-0.731214
-0.731214
-0.799791
-0.799791
-0.860075
-0.860075
-0.912556
-0.912556
1.77022
1.69975
1.77022
1.69975
1.8323
1.8323
1.88623
1.88623
1.93222
1.93222
1.97038
1.97038
2.00058
2.00058
2.02253
2.02253
2.03583
2.03583
2.28582
2.29019
2.28582
2.29019
2.27256
2.27256
2.25025
2.25025
2.21872
2.21872
2.17769
2.17769
2.12682
2.12682
2.0658
2.0658
1.99436
1.99436
1.91231
1.91231
1.81957
1.81957
1.71616
1.71616
1.6022
1.6022
1.47794
1.47794
1.34383
1.34383
1.20055
1.20055
1.04909
1.04909
0.89078
0.89078
0.727306
0.727306
0.560668
0.560668
0.393074
0.393074
0.226795
0.226795
0.0640019
0.0640019
-0.0933658
-0.0933658
-0.243695
-0.243695
-0.385728
-0.385728
-0.518538
-0.518538
-0.641482
-0.641482
-0.754127
-0.754127
-0.856195
-0.856195
-0.947521
-0.947521
-1.02804
-1.02804
-1.09778
-1.09778
-1.15694
-1.15694
1.99436
1.91231
1.99436
1.91231
2.0658
2.0658
2.12682
2.12682
2.17769
2.17769
2.21872
2.21872
2.25025
2.25025
2.27256
2.27256
2.28582
2.28582
2.6029
2.60776
2.6029
2.60776
2.5881
2.5881
2.56291
2.56291
2.5268
2.5268
2.47921
2.47921
2.41961
2.41961
2.3476
2.3476
2.26292
2.26292
2.16545
2.16545
2.05522
2.05522
1.93237
1.93237
1.79719
1.79719
1.65015
1.65015
1.49188
1.49188
1.32329
1.32329
1.14558
1.14558
0.960298
0.960298
0.769331
0.769331
0.574872
0.574872
0.379313
0.379313
0.18511
0.18511
-0.00537005
-0.00537005
-0.189984
-0.189984
-0.366899
-0.366899
-0.534623
-0.534623
-0.691993
-0.691993
-0.838126
-0.838126
-0.972361
-0.972361
-1.09421
-1.09421
-1.20332
-1.20332
-1.29945
-1.29945
-1.38248
-1.38248
-1.45246
-1.45246
2.26292
2.16545
2.26292
2.16545
2.3476
2.3476
2.41961
2.41961
2.47921
2.47921
2.5268
2.5268
2.56291
2.56291
2.5881
2.5881
2.6029
2.6029
2.99924
3.00541
2.99924
3.00541
2.98058
2.98058
2.94908
2.94908
2.9043
2.9043
2.84575
2.84575
2.77294
2.77294
2.68548
2.68548
2.58311
2.58311
2.46576
2.46576
2.3335
2.3335
2.18663
2.18663
2.02563
2.02563
1.85115
1.85115
1.66412
1.66412
1.46568
1.46568
1.25729
1.25729
1.04072
1.04072
0.818046
0.818046
0.591611
0.591611
0.363943
0.363943
0.137627
0.137627
-0.0848244
-0.0848244
-0.301088
-0.301088
-0.50911
-0.50911
-0.70714
-0.70714
-0.893728
-0.893728
-1.0677
-1.0677
-1.2281
-1.2281
-1.3742
-1.3742
-1.50545
-1.50545
-1.62147
-1.62147
-1.72211
-1.72211
-1.80742
-1.80742
2.58311
2.46576
2.58311
2.46576
2.68548
2.68548
2.77294
2.77294
2.84575
2.84575
2.9043
2.9043
2.94908
2.94908
2.98058
2.98058
2.99924
2.99924
3.48469
3.49279
3.48469
3.49279
3.46032
3.46032
3.41959
3.41959
3.36233
3.36233
3.28837
3.28837
3.19745
3.19745
3.08937
3.08937
2.96398
2.96398
2.82129
2.82129
2.6615
2.6615
2.48506
2.48506
2.29265
2.29265
2.08521
2.08521
1.86395
1.86395
1.63035
1.63035
1.38614
1.38614
1.13332
1.13332
0.874134
0.874134
0.611033
0.611033
0.346594
0.346594
0.0834451
0.0834451
-0.175829
-0.175829
-0.428772
-0.428772
-0.673123
-0.673123
-0.906847
-0.906847
-1.12816
-1.12816
-1.33552
-1.33552
-1.52763
-1.52763
-1.70349
-1.70349
-1.86231
-1.86231
-2.00365
-2.00365
-2.12731
-2.12731
-2.2334
-2.2334
2.96398
2.82129
2.96398
2.82129
3.08937
3.08937
3.19745
3.19745
3.28837
3.28837
3.36233
3.36233
3.41959
3.41959
3.46032
3.46032
3.48469
3.48469
4.06999
4.08049
4.06999
4.08049
4.03854
4.03854
3.98623
3.98623
3.91318
3.91318
3.81951
3.81951
3.70533
3.70533
3.57079
3.57079
3.41605
3.41605
3.24142
3.24142
3.04734
3.04734
2.83452
2.83452
2.60395
2.60395
2.35692
2.35692
2.095
2.095
1.82002
1.82002
1.53406
1.53406
1.23934
1.23934
0.938229
0.938229
0.633203
0.633203
0.326785
0.326785
0.0215289
0.0215289
-0.280015
-0.280015
-0.575332
-0.575332
-0.86198
-0.86198
-1.13763
-1.13763
-1.40011
-1.40011
-1.64747
-1.64747
-1.87802
-1.87802
-2.09042
-2.09042
-2.28365
-2.28365
-2.45708
-2.45708
-2.61037
-2.61037
-2.74342
-2.74342
3.41605
3.24142
3.41605
3.24142
3.57079
3.57079
3.70533
3.70533
3.81951
3.81951
3.91318
3.91318
3.98623
3.98623
4.03854
4.03854
4.06999
4.06999
4.75676
4.76991
4.75676
4.76991
4.71737
4.71737
4.65193
4.65193
4.56073
4.56073
4.44416
4.44416
4.3027
4.3027
4.1369
4.1369
3.94739
3.94739
3.73492
3.73492
3.50035
3.50035
3.24479
3.24479
2.96957
2.96957
2.67633
2.67633
2.36697
2.36697
2.04366
2.04366
1.70872
1.70872
1.36463
1.36463
1.01392
1.01392
0.659148
0.659148
0.302876
0.302876
-0.0523063
-0.0523063
-0.403781
-0.403781
-0.7489
-0.7489
-1.085
-1.085
-1.40946
-1.40946
-1.71977
-1.71977
-2.01363
-2.01363
-2.28905
-2.28905
-2.54437
-2.54437
-2.77832
-2.77832
-2.98993
-2.98993
-3.17847
-3.17847
-3.34335
-3.34335
3.94739
3.73492
3.94739
3.73492
4.1369
4.1369
4.3027
4.3027
4.44416
4.44416
4.56073
4.56073
4.65193
4.65193
4.71737
4.71737
4.75676
4.75676
5.56401
5.58021
5.56401
5.58021
5.51551
5.51551
5.43497
5.43497
5.32287
5.32287
5.17985
5.17985
5.00673
5.00673
4.80451
4.80451
4.57431
4.57431
4.31744
4.31744
4.03533
4.03533
3.7296
3.7296
3.40203
3.40203
3.05464
3.05464
2.68964
2.68964
2.30945
2.30945
1.91662
1.91662
1.51385
1.51385
1.10386
1.10386
0.689429
0.689429
0.273335
0.273335
-0.1416
-0.1416
-0.552518
-0.552518
-0.956521
-0.956521
-1.3507
-1.3507
-1.73218
-1.73218
-2.09823
-2.09823
-2.44633
-2.44633
-2.77421
-2.77421
-3.0799
-3.0799
-3.36172
-3.36172
-3.61816
-3.61816
-3.84789
-3.84789
-4.04968
-4.04968
4.57431
4.31744
4.57431
4.31744
4.80451
4.80451
5.00673
5.00673
5.17985
5.17985
5.32287
5.32287
5.43497
5.43497
5.51551
5.51551
5.56401
5.56401
6.51611
6.53585
6.51611
6.53585
6.45704
6.45704
6.35902
6.35902
6.22274
6.22274
6.0491
6.0491
5.83932
5.83932
5.59483
5.59483
5.31729
5.31729
5.0086
5.0086
4.67079
4.67079
4.30608
4.30608
3.9168
3.9168
3.5054
3.5054
3.07445
3.07445
2.62664
2.62664
2.16479
2.16479
1.6918
1.6918
1.21071
1.21071
0.72462
0.72462
0.236714
0.236714
-0.249781
-0.249781
-0.731615
-0.731615
-1.20556
-1.20556
-1.66843
-1.66843
-2.11718
-2.11718
-2.54889
-2.54889
-2.96083
-2.96083
-3.35043
-3.35043
-3.7153
-3.7153
-4.05316
-4.05316
-4.36185
-4.36185
-4.63936
-4.63936
-4.88383
-4.88383
5.31729
5.0086
5.31729
5.0086
5.59483
5.59483
5.83932
5.83932
6.0491
6.0491
6.22274
6.22274
6.35902
6.35902
6.45704
6.45704
6.51611
6.51611
7.64326
7.66709
7.64326
7.66709
7.57193
7.57193
7.45366
7.45366
7.28935
7.28935
7.08026
7.08026
6.82799
6.82799
6.53446
6.53446
6.20186
6.20186
5.83266
5.83266
5.42951
5.42951
4.99522
4.99522
4.53272
4.53272
4.04499
4.04499
3.5351
3.5351
3.00616
3.00616
2.46138
2.46138
1.90407
1.90407
1.33767
1.33767
0.765726
0.765726
0.191897
0.191897
-0.380129
-0.380129
-0.946682
-0.946682
-1.50417
-1.50417
-2.04913
-2.04913
-2.57823
-2.57823
-3.08827
-3.08827
-3.57615
-3.57615
-4.03886
-4.03886
-4.4734
-4.4734
-4.87686
-4.87686
-5.2464
-5.2464
-5.57934
-5.57934
-5.87321
-5.87321
6.20186
5.83266
6.20186
5.83266
6.53446
6.53446
6.82799
6.82799
7.08026
7.08026
7.28935
7.28935
7.45366
7.45366
7.57193
7.57193
7.64326
7.64326
8.98243
9.01101
8.98243
9.01101
8.89693
8.89693
8.75522
8.75522
8.55845
8.55845
8.30826
8.30826
8.00665
8.00665
7.65603
7.65603
7.25914
7.25914
6.81899
6.81899
6.33883
6.33883
5.8221
5.8221
5.27235
5.27235
4.69323
4.69323
4.08846
4.08846
3.46182
3.46182
2.81716
2.81716
2.15841
2.15841
1.48957
1.48957
0.814711
0.814711
0.137955
0.137955
-0.536588
-0.536588
-1.20485
-1.20485
-1.86284
-1.86284
-2.50669
-2.50669
-3.13256
-3.13256
-3.73674
-3.73674
-4.31549
-4.31549
-4.86513
-4.86513
-5.382
-5.382
-5.8625
-5.8625
-6.30313
-6.30313
-6.70059
-6.70059
-7.05179
-7.05179
7.25914
6.81899
7.25914
6.81899
7.65603
7.65603
8.00665
8.00665
8.30826
8.30826
8.55845
8.55845
8.75522
8.75522
8.89693
8.89693
8.98243
8.98243
10.5788
10.6128
10.5788
10.6128
10.4768
10.4768
10.3079
10.3079
10.0735
10.0735
9.77546
9.77546
9.41629
9.41629
8.99885
8.99885
8.52643
8.52643
8.00261
8.00261
7.43128
7.43128
6.81655
6.81655
6.1627
6.1627
5.47418
5.47418
4.75556
4.75556
4.01147
4.01147
3.24661
3.24661
2.4657
2.4657
1.67344
1.67344
0.874522
0.874522
0.0735826
0.0735826
-0.72478
-0.72478
-1.51601
-1.51601
-2.29556
-2.29556
-3.05893
-3.05893
-3.80156
-3.80156
-4.51892
-4.51892
-5.20648
-5.20648
-5.85974
-5.85974
-6.47424
-6.47424
-7.04566
-7.04566
-7.56983
-7.56983
-8.04279
-8.04279
-8.46087
-8.46087
8.52643
8.00261
8.52643
8.00261
8.99885
8.99885
9.41629
9.41629
9.77546
9.77546
10.0735
10.0735
10.3079
10.3079
10.4768
10.4768
10.5788
10.5788
12.487
12.5275
12.487
12.5275
12.366
12.366
12.1654
12.1654
11.8869
11.8869
11.5328
11.5328
11.106
11.106
10.6099
10.6099
10.0482
10.0482
9.42528
9.42528
8.74569
8.74569
8.01432
8.01432
7.23635
7.23635
6.41716
6.41716
5.56225
5.56225
4.67724
4.67724
3.76777
3.76777
2.83947
2.83947
1.89787
1.89787
0.948468
0.948468
-0.00334656
-0.00334656
-0.952215
-0.952215
-1.8928
-1.8928
-2.81972
-2.81972
-3.72757
-3.72757
-4.6109
-4.6109
-5.4642
-5.4642
-6.28199
-6.28199
-7.05886
-7.05886
-7.78947
-7.78947
-8.46868
-8.46868
-9.09156
-9.09156
-9.65345
-9.65345
-10.15
-10.15
10.0482
9.42528
10.0482
9.42528
10.6099
10.6099
11.106
11.106
11.5328
11.5328
11.8869
11.8869
12.1654
12.1654
12.366
12.366
12.487
12.487
14.7732
14.8212
14.7732
14.8212
14.6297
14.6297
14.3918
14.3918
14.0615
14.0615
13.6413
13.6413
13.1345
13.1345
12.5452
12.5452
11.8777
11.8777
11.1371
11.1371
10.3288
10.3288
9.45858
9.45858
8.53264
8.53264
7.55734
7.55734
6.53924
6.53924
5.48499
5.48499
4.40126
4.40126
3.29473
3.29473
2.172
2.172
1.03966
1.03966
-0.0957635
-0.0957635
-1.22775
-1.22775
-2.34979
-2.34979
-3.45533
-3.45533
-4.5378
-4.5378
-5.59062
-5.59062
-6.60719
-6.60719
-7.58097
-7.58097
-8.50552
-8.50552
-9.37455
-9.37455
-10.182
-10.182
-10.922
-10.922
-11.5892
-11.5892
-12.1785
-12.1785
11.8777
11.1371
11.8777
11.1371
12.5452
12.5452
13.1345
13.1345
13.6413
13.6413
14.0615
14.0615
14.3918
14.3918
14.6297
14.6297
14.7732
14.7732
17.5166
17.5735
17.5166
17.5735
17.3465
17.3465
17.0644
17.0644
16.6725
16.6725
16.1739
16.1739
15.5723
15.5723
14.8722
14.8722
14.079
14.079
13.1983
13.1983
12.2367
12.2367
11.2009
11.2009
10.0982
10.0982
8.93593
8.93593
7.72189
7.72189
6.46387
6.46387
5.16978
5.16978
3.84761
3.84761
2.50536
2.50536
1.15109
1.15109
-0.20715
-0.20715
-1.56127
-1.56127
-2.9032
-2.9032
-4.22488
-4.22488
-5.51826
-5.51826
-6.77536
-6.77536
-7.9883
-7.9883
-9.14928
-9.14928
-10.2507
-10.2507
-11.2852
-11.2852
-12.2456
-12.2456
-13.1252
-13.1252
-13.9176
-13.9176
-14.617
-14.617
14.079
13.1983
14.079
13.1983
14.8722
14.8722
15.5723
15.5723
16.1739
16.1739
16.6725
16.6725
17.0644
17.0644
17.3465
17.3465
17.5166
17.5166
20.812
20.8795
20.812
20.8795
20.6102
20.6102
20.2754
20.2754
19.8103
19.8103
19.2182
19.2182
18.5036
18.5036
17.6717
17.6717
16.7285
16.7285
15.6809
15.6809
14.5361
14.5361
13.3022
13.3022
11.9874
11.9874
10.6005
10.6005
9.15059
9.15059
7.64687
7.64687
6.09884
6.09884
4.51615
4.51615
2.9086
2.9086
1.28607
1.28607
-0.341452
-0.341452
-1.96397
-1.96397
-3.57148
-3.57148
-5.15406
-5.15406
-6.70187
-6.70187
-8.20522
-8.20522
-9.65458
-9.65458
-11.0407
-11.0407
-12.3545
-12.3545
-13.5873
-13.5873
-14.7309
-14.7309
-15.7773
-15.7773
-16.7193
-16.7193
-17.5501
-17.5501
16.7285
15.6809
16.7285
15.6809
17.6717
17.6717
18.5036
18.5036
19.2182
19.2182
19.8103
19.8103
20.2754
20.2754
20.6102
20.6102
20.812
20.812
24.7728
24.8529
24.7728
24.8529
24.5331
24.5331
24.1355
24.1355
23.5829
23.5829
22.8793
22.8793
22.0297
22.0297
21.0402
21.0402
19.9177
19.9177
18.6699
18.6699
17.3055
17.3055
15.8335
15.8335
14.2637
14.2637
12.6064
12.6064
10.8723
10.8723
9.07246
9.07246
7.21832
7.21832
5.32163
5.32163
3.39437
3.39437
1.44867
1.44867
-0.503205
-0.503205
-2.44897
-2.44897
-4.37635
-4.37635
-6.27316
-6.27316
-8.12741
-8.12741
-9.92729
-9.92729
-11.6613
-11.6613
-13.3183
-13.3183
-14.8876
-14.8876
-16.3588
-16.3588
-17.7223
-17.7223
-18.9689
-18.9689
-20.0902
-20.0902
-21.0784
-21.0784
19.9177
18.6699
19.9177
18.6699
21.0402
21.0402
22.0297
22.0297
22.8793
22.8793
23.5829
23.5829
24.1355
24.1355
24.5331
24.5331
24.7728
24.7728
29.5346
29.6299
29.5346
29.6299
29.2496
29.2496
28.7768
28.7768
28.1195
28.1195
27.2823
27.2823
26.2709
26.2709
25.0922
25.0922
23.7543
23.7543
22.2661
22.2661
20.6374
20.6374
18.8789
18.8789
17.0021
17.0021
15.0191
15.0191
12.9428
12.9428
10.7865
10.7865
8.56407
8.56407
6.28974
6.28974
3.9781
3.9781
1.64394
1.64394
-0.697764
-0.697764
-3.03202
-3.03202
-5.34385
-5.34385
-7.61843
-7.61843
-9.84114
-9.84114
-11.9977
-11.9977
-14.0742
-14.0742
-16.0572
-16.0572
-17.9339
-17.9339
-19.692
-19.692
-21.3201
-21.3201
-22.8075
-22.8075
-24.1444
-24.1444
-25.3218
-25.3218
23.7543
22.2661
23.7543
22.2661
25.0922
25.0922
26.2709
26.2709
27.2823
27.2823
28.1195
28.1195
28.7768
28.7768
29.2496
29.2496
29.5346
29.5346
35.2599
35.3733
35.2599
35.3733
34.9204
34.9204
34.3573
34.3573
33.5741
33.5741
32.5762
32.5762
31.3702
31.3702
29.9638
29.9638
28.3665
28.3665
26.5886
26.5886
24.6415
24.6415
22.538
22.538
20.2916
20.2916
17.9168
17.9168
15.429
15.429
12.8443
12.8443
10.1794
10.1794
7.4516
7.4516
4.67848
4.67848
1.87806
1.87806
-0.931524
-0.931524
-3.73205
-3.73205
-6.50537
-6.50537
-9.23349
-9.23349
-11.8987
-11.8987
-14.4837
-14.4837
-16.9718
-16.9718
-19.3468
-19.3468
-21.5933
-21.5933
-23.6968
-23.6968
-25.6435
-25.6435
-27.4209
-27.4209
-29.0175
-29.0175
-30.4229
-30.4229
28.3665
26.5886
28.3665
26.5886
29.9638
29.9638
31.3702
31.3702
32.5762
32.5762
33.5741
33.5741
34.3573
34.3573
34.9204
34.9204
35.2599
35.2599
42.1423
42.2775
42.1423
42.2775
41.7373
41.7373
41.0652
41.0652
40.1303
40.1303
38.9386
38.9386
37.4977
37.4977
35.8168
35.8168
33.9067
33.9067
31.7796
31.7796
29.4492
29.4492
26.9304
26.9304
24.2394
24.2394
21.3937
21.3937
18.4116
18.4116
15.3126
15.3126
12.1167
12.1167
8.84477
8.84477
5.51814
5.51814
2.15852
2.15852
-1.21215
-1.21215
-4.57186
-4.57186
-7.89867
-7.89867
-11.1708
-11.1708
-14.367
-14.367
-17.4664
-17.4664
-20.4488
-20.4488
-23.2947
-23.2947
-25.9858
-25.9858
-28.5046
-28.5046
-30.8349
-30.8349
-32.9618
-32.9618
-34.8714
-34.8714
-36.5518
-36.5518
24.6415
31.7796
29.4492
24.6415
31.7796
29.4492
33.9067
33.9067
35.8168
35.8168
37.4977
37.4977
38.9386
38.9386
40.1303
40.1303
41.0652
41.0652
41.7373
41.7373
42.1423
42.1423
50.4129
50.5747
50.4129
50.5747
49.9287
49.9287
49.1249
49.1249
48.0067
48.0067
46.581
46.581
44.8566
44.8566
42.8446
42.8446
40.5575
40.5575
38.0099
38.0099
35.2181
35.2181
32.1999
32.1999
28.9746
28.9746
25.5633
25.5633
21.9879
21.9879
18.2717
18.2717
14.4389
14.4389
10.5145
10.5145
6.52432
6.52432
2.49439
2.49439
-1.54883
-1.54883
-5.57881
-5.57881
-9.56913
-9.56913
-13.4936
-13.4936
-17.3266
-17.3266
-21.043
-21.043
-24.6186
-24.6186
-28.03
-28.03
-31.2553
-31.2553
-34.2736
-34.2736
-37.0654
-37.0654
-39.6128
-39.6128
-41.8998
-41.8998
-43.9116
-43.9116
38.0099
35.2181
38.0099
35.2181
40.5575
40.5575
42.8446
42.8446
44.8566
44.8566
46.581
46.581
48.0067
48.0067
49.1249
49.1249
49.9287
49.9287
50.4129
50.4129
60.3475
60.5413
60.3475
60.5413
59.7674
59.7674
58.8046
58.8046
57.4649
57.4649
55.7566
55.7566
53.6904
53.6904
51.2792
51.2792
48.5381
48.5381
45.4845
45.4845
42.1378
42.1378
38.5194
38.5194
34.6525
34.6525
30.5621
30.5621
26.2748
26.2748
21.8183
21.8183
17.2218
17.2218
12.5154
12.5154
7.72987
7.72987
2.89664
2.89664
-1.95253
-1.95253
-6.78576
-6.78576
-11.5713
-11.5713
-16.2777
-16.2777
-20.8742
-20.8742
-25.3306
-25.3306
-29.6179
-29.6179
-33.7082
-33.7082
-37.575
-37.575
-41.1934
-41.1934
-44.54
-44.54
-47.5936
-47.5936
-50.3347
-50.3347
-52.746
-52.746
45.4845
42.1378
45.4845
42.1378
48.5381
48.5381
51.2792
51.2792
53.6904
53.6904
55.7566
55.7566
57.4649
57.4649
58.8046
58.8046
59.7674
59.7674
60.3475
60.3475
72.2754
72.5078
72.2754
72.5078
71.5796
71.5796
70.4248
70.4248
68.8179
68.8179
66.7691
66.7691
64.291
64.291
61.3992
61.3992
58.1119
58.1119
54.4498
54.4498
50.4363
50.4363
46.097
46.097
41.4597
41.4597
36.5545
36.5545
31.4131
31.4131
26.069
26.069
20.5569
20.5569
14.9131
14.9131
9.17437
9.17437
3.37852
3.37852
-2.4364
-2.4364
-8.23218
-8.23218
-13.9707
-13.9707
-19.6144
-19.6144
-25.1262
-25.1262
-30.47
-30.47
-35.6111
-35.6111
-40.516
-40.516
-45.153
-45.153
-49.4921
-49.4921
-53.5055
-53.5055
-57.1676
-57.1676
-60.455
-60.455
-63.347
-63.347
54.4498
50.4363
54.4498
50.4363
58.1119
58.1119
61.3992
61.3992
64.291
64.291
66.7691
66.7691
68.8179
68.8179
70.4248
70.4248
71.5796
71.5796
72.2754
72.2754
0.467121
0.431821
0.492187
0.534941
0.467121
0.431821
0.492187
0.534941
0.391873
0.444701
0.391873
0.444701
0.347162
0.392389
0.347162
0.392389
0.297743
0.335359
0.297743
0.335359
0.243917
0.27396
0.243917
0.27396
0.186275
0.208802
0.186275
0.208802
0.125684
0.140726
0.125684
0.140726
0.0632303
0.0707709
0.0632303
0.0707709
2.60705e-08
2.83621e-08
2.60705e-08
2.83621e-08
-0.0707708
-0.07948
3.09066e-08
-0.0707708
-0.07948
3.09066e-08
-0.140726
-0.158115
-0.140726
-0.158115
-0.208802
-0.234835
-0.208802
-0.234835
-0.27396
-0.308621
-0.27396
-0.308621
-0.335359
-0.378654
-0.335359
-0.378654
-0.392389
-0.444334
-0.392389
-0.444334
0.561452
0.612863
0.561452
0.612863
0.505306
0.505306
0.444334
0.444334
0.378654
0.378654
0.308621
0.308621
0.234835
0.234835
0.158115
0.158115
0.07948
0.07948
-0.0895256
3.37119e-08
-0.0895256
3.37119e-08
-0.178179
-0.178179
-0.264874
-0.264874
-0.34858
-0.34858
-0.428487
-0.428487
-0.50402
-0.50402
-0.505306
-0.574854
-0.505306
-0.574854
-0.561452
-0.640902
-0.561452
-0.640902
-0.612863
-0.702268
-0.612863
-0.702268
-0.659783
-0.759156
-0.659783
-0.759156
-0.702518
-0.811754
-0.702518
-0.811754
-0.741331
-0.860127
-0.741331
-0.860127
-0.776342
-0.90415
-0.776342
-0.90415
-0.80747
-0.94349
-0.80747
-0.94349
-0.83442
-0.977628
-0.83442
-0.977628
-0.856724
-1.00592
-0.856724
-1.00592
-0.873823
-1.02766
-0.873823
-1.02766
-0.885171
-1.04222
-0.885171
-1.04222
-0.890335
-1.0491
-0.890335
-1.0491
-0.889089
-1.04806
-0.889089
-1.04806
-0.881466
-1.03915
-0.881466
-1.03915
-0.867759
-1.02269
-0.867759
-1.02269
-0.848484
-0.999271
-0.848484
-0.999271
-0.824301
-0.96961
-0.824301
-0.96961
-0.795915
-0.934492
-0.795915
-0.934492
-0.763961
-0.894663
-0.763961
-0.894663
-0.728882
-0.850737
-0.728882
-0.850737
-0.690807
-0.803116
-0.690807
-0.803116
-0.649491
-0.751914
-0.649491
-0.751914
-0.604399
-0.696917
-0.604399
-0.696917
-0.55491
-0.637658
-0.55491
-0.637658
-0.500538
-0.573603
-0.500538
-0.573603
-0.44106
-0.504374
-0.44106
-0.504374
0.640902
0.702268
0.640902
0.702268
0.574854
0.574854
0.50402
0.50402
0.428487
0.428487
0.34858
0.34858
0.264874
0.264874
0.178179
0.178179
0.0895257
0.0895257
-0.101045
3.67649e-08
-0.101045
3.67649e-08
-0.201178
-0.201178
-0.299285
-0.299285
-0.394321
-0.394321
-0.485483
-0.485483
-0.572246
-0.572246
-0.654353
-0.654353
-0.73177
-0.73177
-0.804582
-0.804582
-0.872877
-0.872877
-0.936636
-0.936636
-0.99567
-0.99567
-1.0496
-1.0496
-1.09787
-1.09787
-1.13976
-1.13976
-1.17448
-1.17448
-1.2012
-1.2012
-1.21919
-1.21919
-1.22789
-1.22789
-1.22704
-1.22704
-1.21669
-1.21669
-1.19721
-1.19721
-1.16926
-1.16926
-1.13366
-1.13366
-1.09127
-1.09127
-1.04296
-1.04296
-0.98949
-0.98949
-0.931443
-0.931443
-0.869208
-0.869208
-0.802903
-0.802903
-0.732343
-0.732343
-0.657109
-0.657109
-0.576734
-0.576734
0.73177
0.804582
0.73177
0.804582
0.654353
0.654353
0.572246
0.572246
0.485484
0.485484
0.394321
0.394321
0.299286
0.299286
0.201178
0.201178
0.101045
0.101045
-0.114059
4.00041e-08
-0.114059
4.00041e-08
-0.227151
-0.227151
-0.338143
-0.338143
-0.446015
-0.446015
-0.550036
-0.550036
-0.649778
-0.649778
-0.745057
-0.745057
-0.835822
-0.835822
-0.922024
-0.922024
-1.00352
-1.00352
-1.08002
-1.08002
-1.15107
-1.15107
-1.21605
-1.21605
-1.27421
-1.27421
-1.32467
-1.32467
-1.36646
-1.36646
-1.39866
-1.39866
-1.42042
-1.42042
-1.43113
-1.43113
-1.43048
-1.43048
-1.41855
-1.41855
-1.39575
-1.39575
-1.36278
-1.36278
-1.32056
-1.32056
-1.27006
-1.27006
-1.21225
-1.21225
-1.14803
-1.14803
-1.07814
-1.07814
-1.00318
-1.00318
-0.923579
-0.923579
-0.839532
-0.839532
-0.750972
-0.750972
-0.657595
-0.657595
0.835822
0.922024
0.835822
0.922024
0.745057
0.745057
0.649778
0.649778
0.550036
0.550036
0.446015
0.446015
0.338143
0.338143
0.227151
0.227151
0.114059
0.114059
-0.128447
4.33116e-08
-0.128447
4.33116e-08
-0.255941
-0.255941
-0.38143
-0.38143
-0.504025
-0.504025
-0.623128
-0.623128
-0.738368
-0.738368
-0.849487
-0.849487
-0.956225
-0.956225
-1.05824
-1.05824
-1.15509
-1.15509
-1.24619
-1.24619
-1.33085
-1.33085
-1.40824
-1.40824
-1.47743
-1.47743
-1.53737
-1.53737
-1.58698
-1.58698
-1.6252
-1.6252
-1.65112
-1.65112
-1.66405
-1.66405
-1.66367
-1.66367
-1.65002
-1.65002
-1.62355
-1.62355
-1.58502
-1.58502
-1.53541
-1.53541
-1.4758
-1.4758
-1.40725
-1.40725
-1.33078
-1.33078
-1.24729
-1.24729
-1.15757
-1.15757
-1.06228
-1.06228
-0.961945
-0.961945
-0.85694
-0.85694
-0.747428
-0.747428
0.956225
1.05824
0.956225
1.05824
0.849487
0.849487
0.738368
0.738368
0.623128
0.623128
0.504025
0.504025
0.38143
0.38143
0.255941
0.255941
0.128447
0.128447
-0.144408
4.66733e-08
-0.144408
4.66733e-08
-0.288136
-0.288136
-0.430403
-0.430403
-0.570497
-0.570497
-0.70784
-0.70784
-0.841897
-0.841897
-0.972106
-0.972106
-1.09784
-1.09784
-1.2184
-1.2184
-1.33301
-1.33301
-1.44081
-1.44081
-1.54088
-1.54088
-1.6322
-1.6322
-1.71365
-1.71365
-1.78408
-1.78408
-1.84227
-1.84227
-1.88708
-1.88708
-1.91753
-1.91753
-1.93289
-1.93289
-1.9328
-1.9328
-1.91729
-1.91729
-1.88682
-1.88682
-1.84216
-1.84216
-1.78434
-1.78434
-1.7145
-1.7145
-1.63382
-1.63382
-1.5434
-1.5434
-1.44432
-1.44432
-1.33752
-1.33752
-1.22391
-1.22391
-1.10427
-1.10427
-0.979373
-0.979373
-0.849854
-0.849854
1.09784
1.2184
1.09784
1.2184
0.972106
0.972106
0.841897
0.841897
0.707841
0.707841
0.570497
0.570497
0.430403
0.430403
0.288136
0.288136
0.144408
0.144408
-0.163567
5.05541e-08
-0.163567
5.05541e-08
-0.326902
-0.326902
-0.489552
-0.489552
-0.650914
-0.650914
-0.810268
-0.810268
-0.966772
-0.966772
-1.11948
-1.11948
-1.26736
-1.26736
-1.40933
-1.40933
-1.54429
-1.54429
-1.67108
-1.67108
-1.78852
-1.78852
-1.8954
-1.8954
-1.99044
-1.99044
-2.07236
-2.07236
-2.13988
-2.13988
-2.1918
-2.1918
-2.22711
-2.22711
-2.24506
-2.24506
-2.24527
-2.24527
-2.22775
-2.22775
-2.19292
-2.19292
-2.14156
-2.14156
-2.07469
-2.07469
-1.99347
-1.99347
-1.89913
-1.89913
-1.79291
-1.79291
-1.67602
-1.67602
-1.54961
-1.54961
-1.41483
-1.41483
-1.27278
-1.27278
-1.12458
-1.12458
-0.971345
-0.971345
1.26736
1.40933
1.26736
1.40933
1.11948
1.11948
0.966772
0.966772
0.810268
0.810268
0.650914
0.650914
0.489552
0.489552
0.326902
0.326902
0.163567
0.163567
-0.189031
5.58694e-08
-0.189031
5.58694e-08
-0.377946
-0.377946
-0.566399
-0.566399
-0.75381
-0.75381
-0.939376
-0.939376
-1.12207
-1.12207
-1.30066
-1.30066
-1.47382
-1.47382
-1.6401
-1.6401
-1.79804
-1.79804
-1.94616
-1.94616
-2.08301
-2.08301
-2.20712
-2.20712
-2.31706
-2.31706
-2.41146
-2.41146
-2.48899
-2.48899
-2.54847
-2.54847
-2.58889
-2.58889
-2.60952
-2.60952
-2.61
-2.61
-2.5903
-2.5903
-2.55078
-2.55078
-2.49216
-2.49216
-2.41538
-2.41538
-2.32159
-2.32159
-2.21205
-2.21205
-2.08809
-2.08809
-1.95108
-1.95108
-1.80244
-1.80244
-1.64362
-1.64362
-1.47613
-1.47613
-1.30154
-1.30154
-1.12144
-1.12144
1.47382
1.6401
1.47382
1.6401
1.30066
1.30066
1.12207
1.12207
0.939376
0.939376
0.75381
0.75381
0.566399
0.566399
0.377946
0.377946
0.189031
0.189031
-0.223518
6.32924e-08
-0.223518
6.32924e-08
-0.44653
-0.44653
-0.668416
-0.668416
-0.888441
-0.888441
-1.10572
-1.10572
-1.31919
-1.31919
-1.52755
-1.52755
-1.72932
-1.72932
-1.92283
-1.92283
-2.10634
-2.10634
-2.27806
-2.27806
-2.43622
-2.43622
-2.57912
-2.57912
-2.70516
-2.70516
-2.81289
-2.81289
-2.90097
-2.90097
-2.96829
-2.96829
-3.01394
-3.01394
-3.03727
-3.03727
-3.03792
-3.03792
-3.01586
-3.01586
-2.97135
-2.97135
-2.90496
-2.90496
-2.81751
-2.81751
-2.71005
-2.71005
-2.58385
-2.58385
-2.44032
-2.44032
-2.28105
-2.28105
-2.10779
-2.10779
-1.92241
-1.92241
-1.72689
-1.72689
-1.52322
-1.52322
-1.31333
-1.31333
1.72932
1.92283
1.72932
1.92283
1.52755
1.52755
1.31919
1.31919
1.10572
1.10572
0.888441
0.888441
0.668416
0.668416
0.44653
0.44653
0.223518
0.223518
-0.268524
7.30118e-08
-0.268524
7.30118e-08
-0.535876
-0.535876
-0.800896
-0.800896
-1.06243
-1.06243
-1.31929
-1.31929
-1.57023
-1.57023
-1.81388
-1.81388
-2.04869
-2.04869
-2.27297
-2.27297
-2.48484
-2.48484
-2.68234
-2.68234
-2.86351
-2.86351
-3.02646
-3.02646
-3.16947
-3.16947
-3.29105
-3.29105
-3.38994
-3.38994
-3.46516
-3.46516
-3.51597
-3.51597
-3.54186
-3.54186
-3.54255
-3.54255
-3.51796
-3.51796
-3.46822
-3.46822
-3.39371
-3.39371
-3.29505
-3.29505
-3.17314
-3.17314
-3.02919
-3.02919
-2.86475
-2.86475
-2.68164
-2.68164
-2.48194
-2.48194
-2.26787
-2.26787
-2.0417
-2.0417
-1.80557
-1.80557
-1.56135
-1.56135
2.04869
2.27297
2.04869
2.27297
1.81388
1.81388
1.57023
1.57023
1.31929
1.31929
1.06243
1.06243
0.800896
0.800896
0.535876
0.535876
0.268524
0.268524
-0.323865
8.46002e-08
-0.323865
8.46002e-08
-0.645916
-0.645916
-0.964365
-0.964365
-1.27747
-1.27747
-1.58352
-1.58352
-1.88086
-1.88086
-2.16781
-2.16781
-2.44271
-2.44271
-2.70376
-2.70376
-2.94914
-2.94914
-3.17689
-3.17689
-3.38505
-3.38505
-3.57171
-3.57171
-3.73509
-3.73509
-3.87361
-3.87361
-3.98602
-3.98602
-4.0713
-4.0713
-4.12874
-4.12874
-4.15785
-4.15785
-4.15836
-4.15836
-4.13015
-4.13015
-4.07332
-4.07332
-3.98818
-3.98818
-3.87535
-3.87535
-3.73579
-3.73579
-3.57084
-3.57084
-3.38221
-3.38221
-3.17192
-3.17192
-2.94219
-2.94219
-2.69527
-2.69527
-2.43329
-2.43329
-2.15819
-2.15819
-1.87168
-1.87168
2.44271
2.70376
2.44271
2.70376
2.16782
2.16782
1.88086
1.88086
1.58352
1.58352
1.27747
1.27747
0.964365
0.964365
0.645916
0.645916
0.323865
0.323865
-0.390593
9.83027e-08
-0.390593
9.83027e-08
-0.778729
-0.778729
-1.16197
-1.16197
-1.53793
-1.53793
-1.90427
-1.90427
-2.25875
-2.25875
-2.5992
-2.5992
-2.92356
-2.92356
-3.22986
-3.22986
-3.51614
-3.51614
-3.78053
-3.78053
-4.02117
-4.02117
-4.23625
-4.23625
-4.42408
-4.42408
-4.58312
-4.58312
-4.71204
-4.71204
-4.80974
-4.80974
-4.87539
-4.87539
-4.90842
-4.90842
-4.90849
-4.90849
-4.87549
-4.87549
-4.8096
-4.8096
-4.71127
-4.71127
-4.58129
-4.58129
-4.4208
-4.4208
-4.23129
-4.23129
-4.01452
-4.01452
-3.77244
-3.77244
-3.50705
-3.50705
-3.22032
-3.22032
-2.91413
-2.91413
-2.59035
-2.59035
-2.25084
-2.25084
2.92356
3.22986
2.92356
3.22986
2.5992
2.5992
2.25875
2.25875
1.90427