TTILE = "Vizualisation of the partitioned mesh"
VARIABLES="X","Y","Z","FLAGNODE","FLAGCELL"
ZONE T="element0"
Nodes=818, Elements=367, ZONETYPE=FETETRAHEDRON
DATAPACKING=BLOCK
VARLOCATION=([5]=CELLCENTERED)
1
0.997031
0.997142
1.00001
1
0.997031
0.997142
1.00001
0.783141
0.821413
0.821462
0.783189
0.783141
0.821413
0.821462
0.783189
0.854516
0.854567
0.854516
0.854567
0.882733
0.882785
0.882733
0.882785
0.906486
0.90654
0.906486
0.90654
0.926273
0.926329
0.926273
0.926329
0.942613
0.94267
0.942613
0.94267
0.956008
0.956066
0.956008
0.956066
0.966926
0.966985
0.966926
0.966985
0.97578
0.97584
0.97578
0.97584
0.982933
0.982995
0.982933
0.982995
0.988694
0.988757
0.988694
0.988757
0.993321
0.993388
0.993321
0.993388
0.997031
0.997142
0.997031
0.997142
0.997355
1.0001
0.997355
1.0001
0.821517
0.783242
0.821517
0.783242
0.854624
0.854624
0.882843
0.882843
0.9066
0.9066
0.92639
0.92639
0.942733
0.942733
0.956132
0.956132
0.967052
0.967052
0.975909
0.975909
0.983065
0.983065
0.98883
0.98883
0.993476
0.993476
0.997355
0.997355
0.997715
1.00065
0.997715
1.00065
0.821579
0.783301
0.821579
0.783301
0.854687
0.854687
0.882909
0.882909
0.906667
0.906667
0.92646
0.92646
0.942804
0.942804
0.956205
0.956205
0.967126
0.967126
0.975985
0.975985
0.983143
0.983143
0.988916
0.988916
0.99361
0.99361
0.997715
0.997715
0.998238
1.00142
0.998238
1.00142
0.821649
0.783369
0.821649
0.783369
0.854759
0.854759
0.882983
0.882983
0.906743
0.906743
0.926537
0.926537
0.942884
0.942884
0.956286
0.956286
0.967208
0.967208
0.976067
0.976067
0.983226
0.983226
0.989024
0.989024
0.993823
0.993823
0.998238
0.998238
0.998929
1.00238
0.998929
1.00238
0.821728
0.783447
0.821728
0.783447
0.85484
0.85484
0.883066
0.883066
0.906828
0.906828
0.926624
0.926624
0.942972
0.942972
0.956374
0.956374
0.967295
0.967295
0.976149
0.976149
0.983315
0.983315
0.989174
0.989174
0.99416
0.99416
0.998929
0.998929
0.999806
1.00353
0.999806
1.00353
0.821818
0.783535
0.821818
0.783535
0.854932
0.854932
0.883159
0.883159
0.906923
0.906923
0.92672
0.92672
0.943067
0.943067
0.956466
0.956466
0.967378
0.967378
0.976226
0.976226
0.983417
0.983417
0.989404
0.989404
0.994671
0.994671
0.999806
0.999806
1.00089
1.00489
1.00089
1.00489
0.821919
0.783635
0.821919
0.783635
0.855035
0.855035
0.883263
0.883263
0.907028
0.907028
0.926823
0.926823
0.943165
0.943165
0.956552
0.956552
0.967448
0.967448
0.976293
0.976293
0.983555
0.983555
0.989766
0.989766
0.995406
0.995406
1.00089
1.00089
1.00222
1.00649
1.00222
1.00649
0.822034
0.783749
0.822034
0.783749
0.85515
0.85515
0.883378
0.883378
0.90714
0.90714
0.926929
0.926929
0.943257
0.943257
0.95662
0.95662
0.967491
0.967491
0.976357
0.976357
0.983773
0.983773
0.990324
0.990324
0.996412
0.996412
1.00222
1.00222
1.00383
1.00835
1.00383
1.00835
0.822163
0.783879
0.822163
0.783879
0.855277
0.855277
0.883502
0.883502
0.907256
0.907256
0.927028
0.927028
0.943327
0.943327
0.956648
0.956648
0.967498
0.967498
0.976448
0.976448
0.984139
0.984139
0.991146
0.991146
0.997734
0.997734
1.00383
1.00383
1.00576
1.01053
1.00576
1.01053
0.822306
0.784025
0.822306
0.784025
0.855415
0.855415
0.88363
0.88363
0.907366
0.907366
0.927105
0.927105
0.943349
0.943349
0.956615
0.956615
0.967479
0.967479
0.976624
0.976624
0.984733
0.984733
0.992299
0.992299
0.99942
0.99942
1.00576
1.00576
1.00808
1.01307
1.00808
1.01307
0.822462
0.784189
0.822462
0.784189
0.855559
0.855559
0.883754
0.883754
0.907452
0.907452
0.927129
0.927129
0.94329
0.94329
0.956507
0.956507
0.967476
0.967476
0.976971
0.976971
0.985644
0.985644
0.993852
0.993852
1.00152
1.00152
1.00808
1.00808
1.01083
1.01606
1.01083
1.01606
0.822628
0.784369
0.822628
0.784369
0.855701
0.855701
0.883855
0.883855
0.907485
0.907485
0.927057
0.927057
0.943116
0.943116
0.956344
0.956344
0.96757
0.96757
0.977595
0.977595
0.986963
0.986963
0.995875
0.995875
1.00409
1.00409
1.01083
1.01083
1.0141
1.01956
1.0141
1.01956
0.822794
0.784562
0.822794
0.784562
0.855824
0.855824
0.883903
0.883903
0.907414
0.907414
0.926839
0.926839
0.942818
0.942818
0.95619
0.95619
0.967876
0.967876
0.97861
0.97861
0.988786
0.988786
0.998443
0.998443
1.00719
1.00719
1.0141
1.0141
1.01804
1.02357
1.01804
1.02357
0.822955
0.784768
0.822955
0.784768
0.855911
0.855911
0.883866
0.883866
0.907192
0.907192
0.926427
0.926427
0.942377
0.942377
0.956058
0.956058
0.968408
0.968408
0.980026
0.980026
0.991138
0.991138
1.00163
1.00163
1.01096
1.01096
1.01804
1.01804
1.0227
1.02829
1.0227
1.02829
0.741312
0.78498
0.741572
0.741312
0.78498
0.741572
0.82309
0.82309
0.855915
0.855915
0.88366
0.88366
0.906717
0.906717
0.925777
0.925777
0.94188
0.94188
0.956148
0.956148
0.969407
0.969407
0.982073
0.982073
0.994207
0.994207
1.00556
1.00556
1.01547
1.01547
1.0227
1.0227
1.02821
1.03381
1.02821
1.03381
0.785181
0.741852
0.785181
0.741852
0.82316
0.82316
0.855764
0.855764
0.88318
0.88318
0.905904
0.905904
0.9249
0.9249
0.941437
0.941437
0.956597
0.956597
0.971
0.971
0.984866
0.984866
0.998109
0.998109
1.01036
1.01036
1.02084
1.02084
1.02821
1.02821
1.0347
1.04032
1.0347
1.04032
0.785322
0.74213
0.785322
0.74213
0.823068
0.823068
0.855299
0.855299
0.882251
0.882251
0.904692
0.904692
0.92393
0.92393
0.941299
0.941299
0.957666
0.957666
0.973416
0.973416
0.988595
0.988595
1.003
1.003
1.01615
1.01615
1.0272
1.0272
1.0347
1.0347
1.04237
1.04798
1.04237
1.04798
0.693808
0.742368
0.694188
0.693808
0.742368
0.694188
0.78532
0.78532
0.822665
0.822665
0.854321
0.854321
0.880748
0.880748
0.903158
0.903158
0.923093
0.923093
0.941704
0.941704
0.959561
0.959561
0.976832
0.976832
0.99343
0.99343
1.00905
1.00905
1.02312
1.02312
1.03472
1.03472
1.04237
1.04237
1.0514
1.05702
1.0514
1.05702
0.742468
0.69454
0.742468
0.69454
0.784991
0.784991
0.821672
0.821672
0.852581
0.852581
0.878675
0.878675
0.901585
0.901585
0.922758
0.922758
0.942987
0.942987
0.962563
0.962563
0.981493
0.981493
0.99959
0.99959
1.01646
1.01646
1.03145
1.03145
1.04359
1.04359
1.0514
1.0514
0.74225
0.694777
0.74225
0.694777
0.784035
0.784035
0.819758
0.819758
0.849982
0.849982
0.876285
0.876285
0.900369
0.900369
0.923278
0.923278
0.945438
0.945438
0.966929
0.966929
0.987647
0.987647
1.00732
1.00732
1.02548
1.02548
1.0414
1.0414
1.05407
1.05407
1.06206
1.06206
0.741356
0.694699
0.741356
0.694699
0.781986
0.781986
0.81666
0.81666
0.846737
0.846737
0.874086
0.874086
0.900007
0.900007
0.925065
0.925065
0.949407
0.949407
0.972981
0.972981
0.995598
0.995598
1.01692
1.01692
1.0364
1.0364
1.05326
1.05326
1.06647
1.06647
1.07461
1.07461
0.739201
0.693899
0.739201
0.693899
0.778404
0.778404
0.812514
0.812514
0.843446
0.843446
0.872712
0.872712
0.90101
0.90101
0.928539
0.928539
0.955277
0.955277
0.981086
0.981086
1.00571
1.00571
1.02875
1.02875
1.04959
1.04959
1.06739
1.06739
1.08114
1.08114
1.0894
1.0894
0.735118
0.691623
0.735118
0.691623
0.77333
0.77333
0.808075
0.808075
0.840989
0.840989
0.872869
0.872869
0.903943
0.903943
0.934198
0.934198
0.963517
0.963517
0.991699
0.991699
1.01843
1.01843
1.04325
1.04325
1.06548
1.06548
1.08424
1.08424
1.0985
1.0985
1.10693
1.10693
0.729073
0.686996
0.729073
0.686996
0.767696
0.767696
0.804488
0.804488
0.840267
0.840267
0.875251
0.875251
0.909406
0.909406
0.942608
0.942608
0.974682
0.974682
1.00537
1.00537
1.03431
1.03431
1.06097
1.06097
1.08462
1.08462
1.10435
1.10435
1.11914
1.11914
1.12782
1.12782
-2.9976e-16
-0.000430702
-0.000979924
2.98724e-15
-2.9976e-16
-0.000430702
-0.000979924
2.98724e-15
0.0276057
0.0232552
0.023749
0.0280985
0.0276057
0.0232552
0.023749
0.0280985
0.0193218
0.019817
0.0193218
0.019817
0.0158408
0.0163377
0.0158408
0.0163377
0.0128157
0.0133149
0.0128157
0.0133149
0.0102276
0.0107297
0.0102276
0.0107297
0.00804208
0.00854791
0.00804208
0.00854791
0.00621683
0.00672739
0.00621683
0.00672739
0.00470639
0.00522293
0.00470639
0.00522293
0.00346592
0.00399001
0.00346592
0.00399001
0.00245348
0.00298712
0.00245348
0.00298712
0.00163136
0.00217683
0.00163136
0.00217683
0.000966535
0.00152336
0.000966535
0.00152336
0.000430703
0.000979925
0.000430703
0.000979925
-0.00165799
9.43449e-11
-0.00165799
9.43449e-11
0.0243386
0.0286853
0.0243386
0.0286853
0.02041
0.02041
0.0169351
0.0169351
0.0139181
0.0139181
0.01134
0.01134
0.00916736
0.00916736
0.00735836
0.00735836
0.00586847
0.00586847
0.00465397
0.00465397
0.00367419
0.00367419
0.00289106
0.00289106
0.0022534
0.0022534
0.00165799
0.00165799
-0.00241077
7.19259e-10
-0.00241077
7.19259e-10
0.0250426
0.0293844
0.0250426
0.0293844
0.0211204
0.0211204
0.0176537
0.0176537
0.014647
0.014647
0.012082
0.012082
0.00992598
0.00992598
0.00813798
0.00813798
0.00667468
0.00667468
0.00549377
0.00549377
0.00455534
0.00455534
0.00381455
0.00381455
0.00317483
0.00317483
0.00241077
0.00241077
-0.00324899
1.51004e-09
-0.00324899
1.51004e-09
0.0258839
0.0302177
0.0258839
0.0302177
0.021972
0.021972
0.0185184
0.0185184
0.0155285
0.0155285
0.0129847
0.0129847
0.0108555
0.0108555
0.00910161
0.00910161
0.00768156
0.00768156
0.00655501
0.00655501
0.00567987
0.00567987
0.0049884
0.0049884
0.00430091
0.00430091
0.00324899
0.00324899
-0.0041452
2.37537e-09
-0.0041452
2.37537e-09
0.0268897
0.0312113
0.0268897
0.0312113
0.0229935
0.0229935
0.0195599
0.0195599
0.0165952
0.0165952
0.0140837
0.0140837
0.0119954
0.0119954
0.0102935
0.0102935
0.00893955
0.00893955
0.00789423
0.00789423
0.00710325
0.00710325
0.00644783
0.00644783
0.0056348
0.0056348
0.0041452
0.0041452
-0.00509102
3.26875e-09
-0.00509102
3.26875e-09
0.0280931
0.032397
0.0280931
0.032397
0.0242195
0.0242195
0.0208149
0.0208149
0.0178872
0.0178872
0.0154227
0.0154227
0.0133944
0.0133944
0.0117693
0.0117693
0.0105121
0.0105121
0.00957885
0.00957885
0.00888115
0.00888115
0.00821713
0.00821713
0.00717198
0.00717198
0.00509102
0.00509102
-0.00608439
4.17187e-09
-0.00608439
4.17187e-09
0.0295338
0.0338127
0.0295338
0.0338127
0.0256924
0.0256924
0.0223289
0.0223289
0.0194537
0.0194537
0.0170564
0.0170564
0.0151142
0.0151142
0.0135993
0.0135993
0.0124773
0.0124773
0.0116831
0.0116831
0.0110617
0.0110617
0.0103084
0.0103084
0.00890233
0.00890233
0.00608439
0.00608439
-0.00712753
5.07685e-09
-0.00712753
5.07685e-09
0.0312602
0.0355044
0.0312602
0.0355044
0.0274634
0.0274634
0.0241573
0.0241573
0.0213556
0.0213556
0.0190527
0.0190527
0.0172326
0.0172326
0.0158722
0.0158722
0.0149267
0.0149267
0.01428
0.01428
0.01368
0.01368
0.0127238
0.0127238
0.0108136
0.0108136
0.00712754
0.00712754
-0.0082251
5.97861e-09
-0.0082251
5.97861e-09
0.0333312
0.037528
0.0333312
0.037528
0.0295957
0.0295957
0.0263685
0.0263685
0.0236686
0.0236686
0.021498
0.021498
0.0198483
0.0198483
0.0186953
0.0186953
0.0179582
0.0179582
0.0174314
0.0174314
0.0167574
0.0167574
0.0154596
0.0154596
0.0128948
0.0128948
0.0082251
0.0082251
-0.00938316
6.87229e-09
-0.00938316
6.87229e-09
0.0358187
0.0399512
0.0358187
0.0399512
0.0321667
0.0321667
0.0290476
0.0290476
0.0264887
0.0264887
0.0245018
0.0245018
0.0230846
0.0230846
0.0221916
0.0221916
0.0216646
0.0216646
0.0211838
0.0211838
0.0203053
0.0203053
0.0185105
0.0185105
0.0151391
0.0151391
0.00938316
0.00938316
-0.0106088
7.75248e-09
-0.0106088
7.75248e-09
0.0388114
0.0428571
0.0388114
0.0428571
0.0352727
0.0352727
0.0323017
0.0323017
0.0299374
0.0299374
0.0282032
0.0282032
0.027089
0.027089
0.0264879
0.0264879
0.0261236
0.0261236
0.0255688
0.0255688
0.02433
0.02433
0.0218728
0.0218728
0.0175446
0.0175446
0.0106088
0.0106088
-0.0119101
8.61336e-09
-0.0119101
8.61336e-09
0.0424189
0.0463476
0.0424189
0.0463476
0.0390341
0.0390341
0.0362667
0.0362667
0.034171
0.034171
0.0327744
0.0327744
0.0320243
0.0320243
0.0317001
0.0317001
0.0313943
0.0313943
0.0306094
0.0306094
0.0288373
0.0288373
0.0255473
0.0255473
0.0201156
0.0201156
0.0119101
0.0119101
-0.0132962
9.4491e-09
-0.0132962
9.4491e-09
0.0467783
0.050549
0.0467783
0.050549
0.043604
0.043604
0.0411175
0.0411175
0.0393866
0.0393866
0.0384156
0.0384156
0.0380515
0.0380515
0.0379235
0.0379235
0.0375219
0.0375219
0.0363256
0.0363256
0.0338364
0.0338364
0.0295405
0.0295405
0.0228616
0.0228616
0.0132962
0.0132962
-0.0148729
1.01958e-08
-0.0148729
1.01958e-08
0.0520549
0.055614
0.0520549
0.055614
0.0491652
0.0491652
0.0470601
0.0470601
0.0458139
0.0458139
0.0453668
0.0453668
0.0454075
0.0454075
0.0454028
0.0454028
0.044774
0.044774
0.0430033
0.0430033
0.0396148
0.0396148
0.0341179
0.0341179
0.0259894
0.0259894
0.0148729
0.0148729
-0.0165512
1.09046e-08
-0.0165512
1.09046e-08
0.0597077
0.0617434
0.0656246
0.0597077
0.0617434
0.0656246
0.0584734
0.0584734
0.0559779
0.0559779
0.0543957
0.0543957
0.0537673
0.0537673
0.0538809
0.0538809
0.0542176
0.0542176
0.0541312
0.0541312
0.0530418
0.0530418
0.0504678
0.0504678
0.0459649
0.0459649
0.0390732
0.0390732
0.0293344
0.0293344
0.0165512
0.0165512
-0.0183613
1.15584e-08
-0.0183613
1.15584e-08
0.0691848
0.0727784
0.0691848
0.0727784
0.0663123
0.0663123
0.0643623
0.0643623
0.0634788
0.0634788
0.0635847
0.0635847
0.0642215
0.0642215
0.0646757
0.0646757
0.0642686
0.0642686
0.0624714
0.0624714
0.0588549
0.0588549
0.0530086
0.0530086
0.0445064
0.0445064
0.0329663
0.0329663
0.0183613
0.0183613
-0.0202924
1.2179e-08
-0.0202924
1.2179e-08
0.0782696
0.0814647
0.0782696
0.0814647
0.0759573
0.0759573
0.0747632
0.0747632
0.0747567
0.0747567
0.0756025
0.0756025
0.0765626
0.0765626
0.0768383
0.0768383
0.0758113
0.0758113
0.0730316
0.0730316
0.0681203
0.0681203
0.060697
0.060697
0.0503743
0.0503743
0.036857
0.036857
0.0202924
0.0202924
-0.0223717
1.27704e-08
-0.0223717
1.27704e-08
0.0852841
0.0920605
0.0954889
0.0852841
0.0920605
0.0954889
0.0894281
0.0894281
0.0879082
0.0879082
0.0877176
0.0877176
0.0886922
0.0886922
0.0901272
0.0901272
0.0910985
0.0910985
0.090858
0.090858
0.0889008
0.0889008
0.0848565
0.0848565
0.0783859
0.0783859
0.0691346
0.0691346
0.0567601
0.0567601
0.0410649
0.0410649
0.0223717
0.0223717
-0.0246133
1.33568e-08
-0.0246133
1.33568e-08
0.10508
0.107949
0.10508
0.107949
0.103263
0.103263
0.102844
0.102844
0.103852
0.103852
0.105693
0.105693
0.107352
0.107352
0.10792
0.10792
0.106793
0.106793
0.103585
0.103585
0.097984
0.097984
0.0896789
0.0896789
0.0783402
0.0783402
0.0636797
0.0636797
0.0456064
0.0456064
0.0246134
0.0246134
0.121218
0.123264
0.121218
0.123264
0.120576
0.120576
0.121562
0.121562
0.123751
0.123751
0.126089
0.126089
0.127489
0.127489
0.127215
0.127215
0.124832
0.124832
0.120046
0.120046
0.11258
0.11258
0.102143
0.102143
0.0884326
0.0884326
0.0712267
0.0712267
0.0505481
0.0505481
0.0270507
0.0270507
0.141458
0.142275
0.141458
0.142275
0.142402
0.142402
0.144886
0.144886
0.147876
0.147876
0.15012
0.15012
0.150719
0.150719
0.149164
0.149164
0.145154
0.145154
0.138446
0.138446
0.128785
0.128785
0.115893
0.115893
0.099505
0.099505
0.0794733
0.0794733
0.0559318
0.0559318
0.0296416
0.0296416
0.167105
0.166176
0.167105
0.166176
0.169859
0.169859
0.173474
0.173474
0.176558
0.176558
0.178036
0.178036
0.177302
0.177302
0.174034
0.174034
0.16801
0.16801
0.15901
0.15901
0.14679
0.14679
0.131088
0.131088
0.111683
0.111683
0.088501
0.088501
0.0617633
0.0617633
0.0322827
0.0322827
0.199668
0.196653
0.199668
0.196653
0.203857
0.203857
0.207734
0.207734
0.210057
0.210057
0.21011
0.21011
0.207533
0.207533
0.202113
0.202113
0.19366
0.19366
0.181964
0.181964
0.166784
0.166784
0.14788
0.14788
0.125078
0.125078
0.0983766
0.0983766
0.0680836
0.0680836
0.03511
0.03511
0.240391
0.235698
0.240391
0.235698
0.244956
0.244956
0.248021
0.248021
0.248767
0.248767
0.246785
0.246785
0.241856
0.241856
0.233813
0.233813
0.222473
0.222473
0.207623
0.207623
0.189031
0.189031
0.166482
0.166482
0.139853
0.139853
0.109222
0.109222
0.075014
0.075014
0.0382736
0.0382736
-1.8355e-32
-2.63729e-20
-2.64926e-20
-1.8355e-32
1
1
1
1
1.69036e-18
1.42397e-18
1.42401e-18
1.69039e-18
1
1
1
1
1.18312e-18
1.18317e-18
1
1
9.69966e-19
9.70026e-19
1
1
7.84738e-19
7.84806e-19
1
1
6.26259e-19
6.26335e-19
1
1
4.92435e-19
4.92519e-19
1
1
3.80671e-19
3.80762e-19
1
1
2.88184e-19
2.8828e-19
1
1
2.12226e-19
2.12328e-19
1
1
1.50232e-19
1.5034e-19
1
1
9.98921e-20
1.00005e-19
1
1
5.91832e-20
5.93014e-20
1
1
2.63729e-20
2.64927e-20
1
1
-2.6695e-20
-1.8355e-32
1
1
1.42408e-18
1.69044e-18
1
1
1.18326e-18
1
9.70127e-19
1
7.84923e-19
1
6.26466e-19
1
4.92664e-19
1
3.80919e-19
1
2.8845e-19
1
2.1251e-19
1
1.50535e-19
1
1.00213e-19
1
5.95143e-20
1
2.66951e-20
1
-2.69501e-20
-1.8355e-32
1
1
1.42418e-18
1.6905e-18
1
1
1.18338e-18
1
9.70276e-19
1
7.85096e-19
1
6.26661e-19
1
4.9288e-19
1
3.81157e-19
1
2.88709e-19
1
2.12792e-19
1
1.5084e-19
1
1.0054e-19
1
5.98285e-20
1
2.69502e-20
1
-2.71913e-20
-1.8355e-32
1
1
1.42431e-18
1.6906e-18
1
1
1.18355e-18
1
9.70483e-19
1
7.85337e-19
1
6.26935e-19
1
4.93187e-19
1
3.81496e-19
1
2.89083e-19
1
2.13203e-19
1
1.5129e-19
1
1.0101e-19
1
6.02366e-20
1
2.71913e-20
1
-2.74603e-20
-1.8355e-32
1
1
1.42449e-18
1.69073e-18
1
1
1.18378e-18
1
9.70761e-19
1
7.85662e-19
1
6.27308e-19
1
4.93607e-19
1
3.81965e-19
1
2.89605e-19
1
2.13782e-19
1
1.5192e-19
1
1.01641e-19
1
6.07386e-20
1
2.74603e-20
1
-2.77657e-20
-1.8355e-32
1
1
1.42472e-18
1.69089e-18
1
1
1.18408e-18
1
9.71128e-19
1
7.86094e-19
1
6.27805e-19
1
4.94171e-19
1
3.82601e-19
1
2.90319e-19
1
2.14579e-19
1
1.52769e-19
1
1.02439e-19
1
6.13318e-20
1
2.77657e-20
1
-2.81118e-20
-1.8355e-32
1
1
1.42503e-18
1.69111e-18
1
1
1.18447e-18
1
9.71607e-19
1
7.8666e-19
1
6.28459e-19
1
4.9492e-19
1
3.83453e-19
1
2.91284e-19
1
2.15646e-19
1
1.53861e-19
1
1.03396e-19
1
6.20113e-20
1
2.81119e-20
1
-2.85006e-20
-1.8355e-32
1
1
1.42542e-18
1.69138e-18
1
1
1.18498e-18
1
9.72224e-19
1
7.87393e-19
1
6.29314e-19
1
4.95906e-19
1
3.84586e-19
1
2.92568e-19
1
2.17032e-19
1
1.552e-19
1
1.04499e-19
1
6.27728e-20
1
2.85006e-20
1
-2.89331e-20
-1.8355e-32
1
1
1.42591e-18
1.69172e-18
1
1
1.18562e-18
1
9.73015e-19
1
7.88339e-19
1
6.30425e-19
1
4.972e-19
1
3.8608e-19
1
2.94243e-19
1
2.18765e-19
1
1.56773e-19
1
1.05733e-19
1
6.36139e-20
1
2.89332e-20
1
-2.94104e-20
-1.8355e-32
1
1
1.42654e-18
1.69216e-18
1
1
1.18643e-18
1
9.74026e-19
1
7.89555e-19
1
6.31867e-19
1
4.98893e-19
1
3.88031e-19
1
2.96367e-19
1
2.20845e-19
1
1.58559e-19
1
1.07089e-19
1
6.45339e-20
1
2.94104e-20
1
-2.99336e-20
-1.8355e-32
1
1
1.42733e-18
1.69271e-18
1
1
1.18747e-18
1
9.75314e-19
1
7.91118e-19
1
6.33736e-19
1
5.01096e-19
1
3.90528e-19
1
2.98967e-19
1
2.23249e-19
1
1.60535e-19
1
1.08563e-19
1
6.55337e-20
1
2.99336e-20
1
-3.05039e-20
-1.8355e-32
1
1
1.42832e-18
1.6934e-18
1
1
1.18878e-18
1
9.76956e-19
1
7.93128e-19
1
6.36158e-19
1
5.03932e-19
1
3.93635e-19
1
3.02031e-19
1
2.25942e-19
1
1.62686e-19
1
1.10155e-19
1
6.66158e-20
1
3.0504e-20
1
-3.11231e-20
-1.8355e-32
1
1
1.42957e-18
1.69426e-18
1
1
1.19043e-18
1
9.79053e-19
1
7.9572e-19
1
6.39282e-19
1
5.07509e-19
1
3.9737e-19
1
3.05519e-19
1
2.28894e-19
1
1.65005e-19
1
1.11867e-19
1
6.77834e-20
1
3.11231e-20
1
-3.17981e-20
-1.8355e-32
1
1
1.43115e-18
1.69534e-18
1
1
1.19254e-18
1
9.81745e-19
1
7.99072e-19
1
6.43287e-19
1
5.11922e-19
1
4.01724e-19
1
3.09386e-19
1
2.3207e-19
1
1.67472e-19
1
1.1369e-19
1
6.90369e-20
1
3.17981e-20
1
-3.24857e-20
-1.8355e-32
1
1
1.98047e-18
1.69665e-18
1.98119e-18
1
1
1
1.43307e-18
1
1.19513e-18
1
9.85104e-19
1
8.03254e-19
1
6.48146e-19
1
5.16997e-19
1
4.06461e-19
1
3.13429e-19
1
2.35318e-19
1
1.6997e-19
1
1.1553e-19
1
7.03036e-20
1
3.24858e-20
1
-3.32172e-20
-1.8355e-32
1
1
1.69825e-18
1.98206e-18
1
1
1.43544e-18
1
1.19836e-18
1
9.89312e-19
1
8.08418e-19
1
6.53888e-19
1
5.22676e-19
1
4.11547e-19
1
3.17686e-19
1
2.3872e-19
1
1.7259e-19
1
1.17469e-19
1
7.16439e-20
1
3.32173e-20
1
-3.39673e-20
-1.8355e-32
1
1
1.70021e-18
1.98313e-18
1
1
1.43838e-18
1
1.20243e-18
1
9.94593e-19
1
8.14657e-19
1
6.60412e-19
1
5.28777e-19
1
4.16828e-19
1
3.22036e-19
1
2.42178e-19
1
1.75254e-19
1
1.19447e-19
1
7.30148e-20
1
3.39673e-20
1
-3.47569e-20
-1.8355e-32
1
1
2.27956e-18
1.98444e-18
2.27982e-18
1
1
1
1.70265e-18
1
1.44209e-18
1
1.20759e-18
1
1.00111e-18
1
8.21932e-19
1
6.67588e-19
1
5.35246e-19
1
4.22338e-19
1
3.26555e-19
1
2.45775e-19
1
1.78036e-19
1
1.21523e-19
1
7.44575e-20
1
3.47569e-20
1
-3.55699e-20
-1.8355e-32
1
1
1.98607e-18
2.28013e-18
1
1
1.70573e-18
1
1.44684e-18
1
1.21408e-18
1
1.00888e-18
1
8.30033e-19
1
6.75184e-19
1
5.41917e-19
1
4.27964e-19
1
3.3116e-19
1
2.49445e-19
1
1.80886e-19
1
1.23659e-19
1
7.59456e-20
1
3.557e-20
1
1.98815e-18
2.28053e-18
1
1
1.7097e-18
1
1.45291e-18
1
1.222e-18
1
1.01773e-18
1
8.38756e-19
1
6.83131e-19
1
5.48827e-19
1
4.33781e-19
1
3.35928e-19
1
2.53261e-19
1
1.83864e-19
1
1.25903e-19
1
7.75109e-20
1
3.64224e-20
1
1.99084e-18
2.28106e-18
1
1
1.71485e-18
1
1.46049e-18
1
1.23121e-18
1
1.02736e-18
1
8.47904e-19
1
6.91349e-19
1
5.55947e-19
1
4.39779e-19
1
3.4086e-19
1
2.57225e-19
1
1.86974e-19
1
1.28258e-19
1
7.91546e-20
1
3.73159e-20
1
1.99441e-18
2.2818e-18
1
1
1.72142e-18
1
1.4695e-18
1
1.24138e-18
1
1.03753e-18
1
8.57398e-19
1
6.99841e-19
1
5.6331e-19
1
4.45999e-19
1
3.45994e-19
1
2.61372e-19
1
1.90245e-19
1
1.30743e-19
1
8.08868e-20
1
3.82604e-20
1
1.99907e-18
2.28286e-18
1
1
1.72937e-18
1
1.47951e-18
1
1.2521e-18
1
1.04801e-18
1
8.67124e-19
1
7.08543e-19
1
5.70873e-19
1
4.52411e-19
1
3.51311e-19
1
2.65688e-19
1
1.93665e-19
1
1.33348e-19
1
8.26997e-20
1
3.92473e-20
1
2.00475e-18
2.28433e-18
1
1
1.73823e-18
1
1.49006e-18
1
1.26312e-18
1
1.05875e-18
1
8.77098e-19
1
7.17496e-19
1
5.78683e-19
1
4.5906e-19
1
3.56851e-19
1
2.70209e-19
1
1.97264e-19
1
1.36096e-19
1
8.4613e-20
1
4.02825e-20
1
0
1
1
0
0
1
1
0
1
0
0
1
1
0
0
1
0
0
0
0
0
0
0
0
0
0
0
0
0
0
0
0
0
0
0
0
0
0
0
0
0
0
0
0
0
0
0
0
0
0
0
0
0
0
0
0
0
0
0
0
0
0
0
0
1
0
1
0
0
1
0
1
0
0
0
0
0
0
0
0
0
0
0
0
0
0
0
0
0
0
0
0
0
0
0
0
1
0
1
0
0
1
0
1
0
0
0
0
0
0
0
0
0
0
0
0
0
0
0
0
0
0
0
0
0
0
0
0
1
0
1
0
0
1
0
1
0
0
0
0
0
0
0
0
0
0
0
0
0
0
0
0
0
0
0
0
0
0
0
0
1
0
1
0
0
1
0
1
0
0
0
0
0
0
0
0
0
0
0
0
0
0
0
0
0
0
0
0
0
0
0
0
1
0
1
0
0
1
0
1
0
0
0
0
0
0
0
0
0
0
0
0
0
0
0
0
0
0
0
0
0
0
0
0
1
0
1
0
0
1
0
1
0
0
0
0
0
0
0
0
0
0
0
0
0
0
0
0
0
0
0
0
0
0
0
0
1
0
1
0
0
1
0
1
0
0
0
0
0
0
0
0
0
0
0
0
0
0
0
0
0
0
0
0
0
0
0
0
1
0
1
0
0
1
0
1
0
0
0
0
0
0
0
0
0
0
0
0
0
0
0
0
0
0
0
0
0
0
0
0
1
0
1
0
0
1
0
1
0
0
0
0
0
0
0
0
0
0
0
0
0
0
0
0
0
0
0
0
0
0
0
0
1
0
1
0
0
1
0
1
0
0
0
0
0
0
0
0
0
0
0
0
0
0
0
0
0
0
0
0
0
0
0
0
1
0
1
0
0
1
0
1
0
0
0
0
0
0
0
0
0
0
0
0
0
0
0
0
0
0
0
0
0
0
0
0
1
0
1
0
0
1
0
1
0
0
0
0
0
0
0
0
0
0
0
0
0
0
0
0
0
0
0
0
0
0
0
0
1
0
1
0
0
1
0
1
0
0
0
0
0
0
0
0
0
0
0
0
0
0
0
0
0
0
0
0
0
0
0
0
1
0
1
0
1
0
1
1
0
1
0
0
0
0
0
0
0
0
0
0
0
0
0
0
0
0
0
0
0
0
0
0
0
0
0
0
1
0
1
0
0
1
0
1
0
0
0
0
0
0
0
0
0
0
0
0
0
0
0
0
0
0
0
0
0
0
0
0
0
0
1
0
1
0
0
1
0
1
0
0
0
0
0
0
0
0
0
0
0
0
0
0
0
0
0
0
0
0
0
0
0
0
0
0
1
0
1
0
1
0
1
1
0
1
0
0
0
0
0
0
0
0
0
0
0
0
0
0
0
0
0
0
0
0
0
0
0
0
0
0
0
0
1
1
1
1
0
1
0
1
0
0
0
0
0
0
0
0
0
0
0
0
0
0
0
0
0
0
0
0
0
0
0
0
0
0
1
1
0
1
0
1
0
0
0
0
0
0
0
0
0
0
0
0
0
0
0
0
0
0
0
0
0
0
0
0
0
0
1
1
0
1
0
1
0
0
0
0
0
0
0
0
0
0
0
0
0
0
0
0
0
0
0
0
0
0
0
0
0
0
1
1
0
1
0
1
0
0
0
0
0
0
0
0
0
0
0
0
0
0
0
0
0
0
0
0
0
0
0
0
0
0
1
1
0
1
0
1
0
0
0
0
0
0
0
0
0
0
0
0
0
0
0
0
0
0
0
0
0
0
0
0
0
0
1
1
1
1
1
1
1
1
1
1
1
1
1
1
1
1
1
1
1
1
1
1
1
1
1
1
1
1
1
1
1
1
1
1
2
2
0
0
0
0
0
0
0
0
0
0
0
0
0
2
2
0
0
0
0
0
0
0
0
0
0
0
0
0
2
2
0
0
0
0
0
0
0
0
0
0
0
0
0
2
2
0
0
0
0
0
0
0
0
0
0
0
0
0
2
2
0
0
0
0
0
0
0
0
0
0
0
0
0
2
2
0
0
0
0
0
0
0
0
0
0
0
0
0
2
2
0
0
0
0
0
0
0
0
0
0
0
0
0
2
2
0
0
0
0
0
0
0
0
0
0
0
0
0
2
2
0
0
0
0
0
0
0
0
0
0
0
0
0
2
2
0
0
0
0
0
0
0
0
0
0
0
0
0
2
2
0
0
0
0
0
0
0
0
0
0
0
0
0
2
2
0
0
0
0
0
0
0
0
0
0
0
0
0
2
2
0
0
0
0
0
0
0
0
0
0
0
0
0
2
2
0
0
0
0
0
0
0
0
0
0
0
0
0
2
4
0
0
0
0
0
0
0
0
0
0
0
0
0
0
2
2
0
0
0
0
0
0
0
0
0
0
0
0
0
0
2
2
0
0
0
0
0
0
0
0
0
0
0
0
0
0
2
4
0
0
0
0
0
0
0
0
0
0
0
0
0
0
0
4
2
0
0
0
0
0
0
0
0
0
0
0
0
0
0
2
2
0
0
0
0
0
0
0
0
0
0
0
0
0
2
2
0
0
0
0
0
0
0
0
0
0
0
0
0
2
2
0
0
0
0
0
0
0
0
0
0
0
0
0
2
2
0
0
0
0
0
0
0
0
0
0
0
0
0
2
4
2
2
2
2
2
2
2
2
2
2
2
2
2
4
1	2	3	4	5	6	7	8	
9	10	11	12	13	14	15	16	
10	17	18	11	14	19	20	15	
17	21	22	18	19	23	24	20	
21	25	26	22	23	27	28	24	
25	29	30	26	27	31	32	28	
29	33	34	30	31	35	36	32	
33	37	38	34	35	39	40	36	
37	41	42	38	39	43	44	40	
41	45	46	42	43	47	48	44	
45	49	50	46	47	51	52	48	
49	53	54	50	51	55	56	52	
53	57	58	54	55	59	60	56	
57	61	62	58	59	63	64	60	
61	1	4	62	63	5	8	64	
4	3	65	66	8	7	67	68	
12	11	69	70	16	15	71	72	
11	18	73	69	15	20	74	71	
18	22	75	73	20	24	76	74	
22	26	77	75	24	28	78	76	
26	30	79	77	28	32	80	78	
30	34	81	79	32	36	82	80	
34	38	83	81	36	40	84	82	
38	42	85	83	40	44	86	84	
42	46	87	85	44	48	88	86	
46	50	89	87	48	52	90	88	
50	54	91	89	52	56	92	90	
54	58	93	91	56	60	94	92	
58	62	95	93	60	64	96	94	
62	4	66	95	64	8	68	96	
66	65	97	98	68	67	99	100	
70	69	101	102	72	71	103	104	
69	73	105	101	71	74	106	103	
73	75	107	105	74	76	108	106	
75	77	109	107	76	78	110	108	
77	79	111	109	78	80	112	110	
79	81	113	111	80	82	114	112	
81	83	115	113	82	84	116	114	
83	85	117	115	84	86	118	116	
85	87	119	117	86	88	120	118	
87	89	121	119	88	90	122	120	
89	91	123	121	90	92	124	122	
91	93	125	123	92	94	126	124	
93	95	127	125	94	96	128	126	
95	66	98	127	96	68	100	128	
98	97	129	130	100	99	131	132	
102	101	133	134	104	103	135	136	
101	105	137	133	103	106	138	135	
105	107	139	137	106	108	140	138	
107	109	141	139	108	110	142	140	
109	111	143	141	110	112	144	142	
111	113	145	143	112	114	146	144	
113	115	147	145	114	116	148	146	
115	117	149	147	116	118	150	148	
117	119	151	149	118	120	152	150	
119	121	153	151	120	122	154	152	
121	123	155	153	122	124	156	154	
123	125	157	155	124	126	158	156	
125	127	159	157	126	128	160	158	
127	98	130	159	128	100	132	160	
130	129	161	162	132	131	163	164	
134	133	165	166	136	135	167	168	
133	137	169	165	135	138	170	167	
137	139	171	169	138	140	172	170	
139	141	173	171	140	142	174	172	
141	143	175	173	142	144	176	174	
143	145	177	175	144	146	178	176	
145	147	179	177	146	148	180	178	
147	149	181	179	148	150	182	180	
149	151	183	181	150	152	184	182	
151	153	185	183	152	154	186	184	
153	155	187	185	154	156	188	186	
155	157	189	187	156	158	190	188	
157	159	191	189	158	160	192	190	
159	130	162	191	160	132	164	192	
162	161	193	194	164	163	195	196	
166	165	197	198	168	167	199	200	
165	169	201	197	167	170	202	199	
169	171	203	201	170	172	204	202	
171	173	205	203	172	174	206	204	
173	175	207	205	174	176	208	206	
175	177	209	207	176	178	210	208	
177	179	211	209	178	180	212	210	
179	181	213	211	180	182	214	212	
181	183	215	213	182	184	216	214	
183	185	217	215	184	186	218	216	
185	187	219	217	186	188	220	218	
187	189	221	219	188	190	222	220	
189	191	223	221	190	192	224	222	
191	162	194	223	192	164	196	224	
194	193	225	226	196	195	227	228	
198	197	229	230	200	199	231	232	
197	201	233	229	199	202	234	231	
201	203	235	233	202	204	236	234	
203	205	237	235	204	206	238	236	
205	207	239	237	206	208	240	238	
207	209	241	239	208	210	242	240	
209	211	243	241	210	212	244	242	
211	213	245	243	212	214	246	244	
213	215	247	245	214	216	248	246	
215	217	249	247	216	218	250	248	
217	219	251	249	218	220	252	250	
219	221	253	251	220	222	254	252	
221	223	255	253	222	224	256	254	
223	194	226	255	224	196	228	256	
226	225	257	258	228	227	259	260	
230	229	261	262	232	231	263	264	
229	233	265	261	231	234	266	263	
233	235	267	265	234	236	268	266	
235	237	269	267	236	238	270	268	
237	239	271	269	238	240	272	270	
239	241	273	271	240	242	274	272	
241	243	275	273	242	244	276	274	
243	245	277	275	244	246	278	276	
245	247	279	277	246	248	280	278	
247	249	281	279	248	250	282	280	
249	251	283	281	250	252	284	282	
251	253	285	283	252	254	286	284	
253	255	287	285	254	256	288	286	
255	226	258	287	256	228	260	288	
258	257	289	290	260	259	291	292	
262	261	293	294	264	263	295	296	
261	265	297	293	263	266	298	295	
265	267	299	297	266	268	300	298	
267	269	301	299	268	270	302	300	
269	271	303	301	270	272	304	302	
271	273	305	303	272	274	306	304	
273	275	307	305	274	276	308	306	
275	277	309	307	276	278	310	308	
277	279	311	309	278	280	312	310	
279	281	313	311	280	282	314	312	
281	283	315	313	282	284	316	314	
283	285	317	315	284	286	318	316	
285	287	319	317	286	288	320	318	
287	258	290	319	288	260	292	320	
290	289	321	322	292	291	323	324	
294	293	325	326	296	295	327	328	
293	297	329	325	295	298	330	327	
297	299	331	329	298	300	332	330	
299	301	333	331	300	302	334	332	
301	303	335	333	302	304	336	334	
303	305	337	335	304	306	338	336	
305	307	339	337	306	308	340	338	
307	309	341	339	308	310	342	340	
309	311	343	341	310	312	344	342	
311	313	345	343	312	314	346	344	
313	315	347	345	314	316	348	346	
315	317	349	347	316	318	350	348	
317	319	351	349	318	320	352	350	
319	290	322	351	320	292	324	352	
322	321	353	354	324	323	355	356	
326	325	357	358	328	327	359	360	
325	329	361	357	327	330	362	359	
329	331	363	361	330	332	364	362	
331	333	365	363	332	334	366	364	
333	335	367	365	334	336	368	366	
335	337	369	367	336	338	370	368	
337	339	371	369	338	340	372	370	
339	341	373	371	340	342	374	372	
341	343	375	373	342	344	376	374	
343	345	377	375	344	346	378	376	
345	347	379	377	346	348	380	378	
347	349	381	379	348	350	382	380	
349	351	383	381	350	352	384	382	
351	322	354	383	352	324	356	384	
354	353	385	386	356	355	387	388	
358	357	389	390	360	359	391	392	
357	361	393	389	359	362	394	391	
361	363	395	393	362	364	396	394	
363	365	397	395	364	366	398	396	
365	367	399	397	366	368	400	398	
367	369	401	399	368	370	402	400	
369	371	403	401	370	372	404	402	
371	373	405	403	372	374	406	404	
373	375	407	405	374	376	408	406	
375	377	409	407	376	378	410	408	
377	379	411	409	378	380	412	410	
379	381	413	411	380	382	414	412	
381	383	415	413	382	384	416	414	
383	354	386	415	384	356	388	416	
386	385	417	418	388	387	419	420	
390	389	421	422	392	391	423	424	
389	393	425	421	391	394	426	423	
393	395	427	425	394	396	428	426	
395	397	429	427	396	398	430	428	
397	399	431	429	398	400	432	430	
399	401	433	431	400	402	434	432	
401	403	435	433	402	404	436	434	
403	405	437	435	404	406	438	436	
405	407	439	437	406	408	440	438	
407	409	441	439	408	410	442	440	
409	411	443	441	410	412	444	442	
411	413	445	443	412	414	446	444	
413	415	447	445	414	416	448	446	
415	386	418	447	416	388	420	448	
418	417	449	450	420	419	451	452	
422	421	453	454	424	423	455	456	
421	425	457	453	423	426	458	455	
425	427	459	457	426	428	460	458	
427	429	461	459	428	430	462	460	
429	431	463	461	430	432	464	462	
431	433	465	463	432	434	466	464	
433	435	467	465	434	436	468	466	
435	437	469	467	436	438	470	468	
437	439	471	469	438	440	472	470	
439	441	473	471	440	442	474	472	