TTILE = "Vizualisation of the partitioned mesh"
VARIABLES="X","Y","Z","FLAGNODE","FLAGCELL"
ZONE T="element0"
Nodes=340, Elements=143, ZONETYPE=FETETRAHEDRON
DATAPACKING=BLOCK
VARLOCATION=([5]=CELLCENTERED)
-0.0285968
-0.0226694
-0.02797
-0.0344002
-0.0285968
-0.0226694
-0.02797
-0.0344002
-0.0145913
-0.0192249
-0.0145913
-0.0192249
-0.00460372
-0.00845714
-0.00460372
-0.00845714
0.00713517
0.0041149
0.00713517
0.0041149
0.0206299
0.0184248
0.0206299
0.0184248
-0.0341824
-0.0411573
-0.0341824
-0.0411573
-0.0247081
-0.0247081
-0.0130701
-0.0130701
0.000456009
0.000456009
0.0157298
0.0157298
0.0346213
0.0328058
0.0346213
0.0328058
0.0530993
0.0519911
0.0530993
0.0519911
0.0744785
0.0738628
0.0744785
0.0738628
-0.041406
-0.0489581
-0.041406
-0.0489581
-0.0311511
-0.0311511
-0.0185641
-0.0185641
-0.00397158
-0.00397158
0.0124152
0.0124152
0.0305551
0.0305551
0.0506465
0.0506465
0.073181
0.073181
-0.0498369
-0.0580077
-0.0498369
-0.0580077
-0.0387394
-0.0387394
-0.0251145
-0.0251145
-0.00933417
-0.00933417
0.00832497
0.00832497
0.0277305
0.0277305
0.0489621
0.0489621
0.072387
0.072387
0.0988935
0.0986776
0.0988935
0.0986776
0.12859
0.128685
0.12859
0.128685
0.162933
0.163185
0.162933
0.163185
0.202318
0.202666
0.202318
0.202666
0.246831
0.247256
0.246831
0.247256
-0.0596518
-0.0684816
-0.0596518
-0.0684816
-0.0476519
-0.0476519
-0.0329044
-0.0329044
-0.0158205
-0.0158205
0.00326567
0.00326567
0.0241406
0.0241406
0.0467693
0.0467693
0.0713728
0.0713728
0.0984955
0.0984955
0.128967
0.128967
0.163668
0.163668
0.20323
0.20323
0.247867
0.247867
-0.0711161
-0.0806533
-0.0711161
-0.0806533
-0.0581432
-0.0581432
-0.0421777
-0.0421777
-0.023665
-0.023665
-0.00299
-0.00299
0.019564
0.019564
0.0438598
0.0438598
0.0699703
0.0699703
0.098265
0.098265
0.129459
0.129459
0.164478
0.164478
0.204122
0.204122
0.248761
0.248761
-0.0845202
-0.0948181
-0.0845202
-0.0948181
-0.0704982
-0.0704982
-0.0532139
-0.0532139
-0.0331434
-0.0331434
-0.0107157
-0.0107157
0.0137261
0.0137261
0.0399594
0.0399594
0.0679249
0.0679249
0.0978034
0.0978034
0.130112
0.130112
0.165699
0.165699
0.205493
0.205493
0.250089
0.250089
-0.100228
-0.111347
-0.100228
-0.111347
-0.0850723
-0.0850723
-0.0663585
-0.0663585
-0.0445916
-0.0445916
-0.0202402
-0.0202402
0.00630129
0.00630129
0.0347397
0.0347397
0.064908
0.064908
0.0968155
0.0968155
0.130744
0.130744
0.167333
0.167333
0.207499
0.207499
0.252055
0.252055
-0.118663
-0.130668
-0.118663
-0.130668
-0.102281
-0.102281
-0.0820205
-0.0820205
-0.0584127
-0.0584127
-0.0319623
-0.0319623
-0.00310964
-0.00310964
0.0277935
0.0277935
0.0604958
0.0604958
0.0948704
0.0948704
0.13098
0.13098
0.169184
0.169184
0.210193
0.210193
0.254892
0.254892
-0.140366
-0.15333
-0.140366
-0.15333
-0.122657
-0.122657
-0.100719
-0.100719
-0.0751124
-0.0751124
-0.0463758
-0.0463758
-0.0149922
-0.0149922
0.0186355
0.0186355
0.0541887
0.0541887
0.0914388
0.0914388
0.130277
0.130277
0.17079
0.17079
-0.165998
-0.180004
-0.165998
-0.180004
-0.146849
-0.146849
-0.123092
-0.123092
-0.095316
-0.095316
-0.0640945
-0.0640945
-0.0299523
-0.0299523
0.0066599
0.0066599
0.0453669
0.0453669
0.0858629
0.0858629
0.127916
0.127916
0.171401
0.171401
-0.196384
-0.211522
-0.196384
-0.211522
-0.175671
-0.175671
-0.149941
-0.149941
-0.11981
-0.11981
-0.0858926
-0.0858926
-0.0487552
-0.0487552
-0.00889736
-0.00889736
0.0332527
0.0332527
0.0773251
0.0773251
0.122998
0.122998
0.169994
0.169994
-0.232551
-0.24892
-0.232551
-0.24892
-0.210139
-0.210139
-0.182268
-0.182268
-0.149588
-0.149588
-0.112755
-0.112755
-0.0723836
-0.0723836
-0.0290274
-0.0290274
0.0168283
0.0168283
0.0647489
0.0647489
0.114329
0.114329
0.16517
0.16517
0.021906
0.0320542
0.0359065
0.0245378
0.021906
0.0320542
0.0359065
0.0245378
0.0411604
0.046099
0.0411604
0.046099
0.049061
0.0549046
0.049061
0.0549046
0.0557319
0.0622707
0.0557319
0.0622707
0.0612852
0.0682812
0.0612852
0.0682812
0.0402661
0.0275055
0.0402661
0.0275055
0.0517228
0.0517228
0.0616154
0.0616154
0.0698541
0.0698541
0.0764878
0.0764878
0.0731373
0.0816901
0.0731373
0.0816901
0.0771403
0.0857557
0.0771403
0.0857557
0.0805972
0.0890379
0.0805972
0.0890379
0.0451308
0.0308057
0.0451308
0.0308057
0.0580347
0.0580347
0.0692082
0.0692082
0.0785196
0.0785196
0.085978
0.085978
0.0917183
0.0917183
0.0960051
0.0960051
0.0992043
0.0992043
0.050588
0.0344994
0.050588
0.0344994
0.0651444
0.0651444
0.0778121
0.0778121
0.0884155
0.0884155
0.0969218
0.0969218
0.103422
0.103422
0.108132
0.108132
0.111397
0.111397
0.101706
0.113649
0.101706
0.113649
0.103793
0.115288
0.103793
0.115288
0.105545
0.116544
0.105545
0.116544
0.106863
0.117418
0.106863
0.117418
0.107556
0.117757
0.107556
0.117757
0.0566771
0.0386127
0.0566771
0.0386127
0.0731041
0.0731041
0.0874928
0.0874928
0.099624
0.099624
0.109424
0.109424
0.116938
0.116938
0.122329
0.122329
0.12589
0.12589
0.128043
0.128043
0.129271
0.129271
0.129965
0.129965
0.130284
0.130284
0.130163
0.130163
0.0635012
0.0432159
0.0635012
0.0432159
0.0820465
0.0820465
0.0984086
0.0984086
0.112326
0.112326
0.123686
0.123686
0.132492
0.132492
0.138854
0.138854
0.142996
0.142996
0.145291
0.145291
0.146239
0.146239
0.146363
0.146363
0.146023
0.146023
0.145314
0.145314
0.0711525
0.0483709
0.0711525
0.0483709
0.0920919
0.0920919
0.110706
0.110706
0.126694
0.126694
0.139904
0.139904
0.150304
0.150304
0.157956
0.157956
0.16302
0.16302
0.165788
0.165788
0.166714
0.166714
0.16638
0.16638
0.165336
0.165336
0.163906
0.163906
0.0797516
0.054159
0.0797516
0.054159
0.103399
0.103399
0.124579
0.124579
0.142953
0.142953
0.158333
0.158333
0.170656
0.170656
0.179944
0.179944
0.186304
0.186304
0.189945
0.189945
0.191233
0.191233
0.190717
0.190717
0.189055
0.189055
0.186822
0.186822
0.0894225
0.0606628
0.0894225
0.0606628
0.116131
0.116131
0.140229
0.140229
0.161339
0.161339
0.179245
0.179245
0.19385
0.19385
0.205151
0.205151
0.213211
0.213211
0.218175
0.218175
0.220312
0.220312
0.220071
0.220071
0.218103
0.218103
0.215147
0.215147
0.100333
0.0679955
0.100333
0.0679955
0.13051
0.13051
0.157929
0.157929
0.182178
0.182178
0.203007
0.203007
0.220297
0.220297
0.234022
0.234022
0.24422
0.24422
0.250991
0.250991
0.254524
0.254524
0.255157
0.255157
0.112677
0.0762861
0.112677
0.0762861
0.146792
0.146792
0.177995
0.177995
0.205841
0.205841
0.23005
0.23005
0.250481
0.250481
0.267093
0.267093
0.279909
0.279909
0.289007
0.289007
0.29453
0.29453
0.296726
0.296726
0.126687
0.0856923
0.126687
0.0856923
0.165286
0.165286
0.200813
0.200813
0.232787
0.232787
0.260902
0.260902
0.284998
0.284998
0.305024
0.305024
0.321002
0.321002
0.333006
0.333006
0.341166
0.341166
0.345688
0.345688
0.142641
0.0963992
0.142641
0.0963992
0.186358
0.186358
0.226836
0.226836
0.263556
0.263556
0.296189
0.296189
0.32456
0.32456
0.348615
0.348615
0.368385
0.368385
0.383965
0.383965
0.395506
0.395506
0.403238
0.403238
4.32229e-19
6.73081e-19
6.76576e-19
4.35781e-19
1
1
1
1
9.31446e-19
9.34101e-19
1
1
1.20249e-18
1.20418e-18
1
1
1.48114e-18
1.4822e-18
1
1
1.76491e-18
1.76536e-18
1
1
6.80158e-19
4.39345e-19
1
1
9.36909e-19
1
1.20604e-18
1
1.48336e-18
1
1.76587e-18
1
2.05089e-18
2.05069e-18
1
1
2.33557e-18
2.33452e-18
1
1
2.61432e-18
2.61242e-18
1
1
6.83667e-19
4.42742e-19
1
1
9.39764e-19
1
1.20802e-18
1
1.4846e-18
1
1.76639e-18
1
2.05043e-18
1
2.3333e-18
1
2.61018e-18
1
6.872e-19
4.46089e-19
1
1
9.42721e-19
1
1.21014e-18
1
1.48593e-18
1
1.76694e-18
1
2.0501e-18
1
2.33188e-18
1
2.60756e-18
1
2.8745e-18
2.8707e-18
1
1
3.11746e-18
3.11267e-18
1
1
3.32818e-18
3.32267e-18
1
1
3.49451e-18
3.4886e-18
1
1
3.60456e-18
3.59855e-18
1
1
6.90656e-19
4.49289e-19
1
1
9.45698e-19
1
1.21233e-18
1
1.48732e-18
1
1.76749e-18
1
2.04967e-18
1
2.33026e-18
1
2.60455e-18
1
2.86625e-18
1
3.10695e-18
1
3.31603e-18
1
3.48146e-18
1
3.5913e-18
1
6.94102e-19
4.5242e-19
1
1
9.48736e-19
1
1.21461e-18
1
1.48876e-18
1
1.76803e-18
1
2.04915e-18
1
2.32842e-18
1
2.60111e-18
1
2.86107e-18
1
3.10016e-18
1
3.30805e-18
1
3.47281e-18
1
3.5825e-18
1
6.9752e-19
4.55469e-19
1
1
9.51814e-19
1
1.21696e-18
1
1.49025e-18
1
1.76855e-18
1
2.04851e-18
1
2.32632e-18
1
2.59723e-18
1
2.85515e-18
1
3.09222e-18
1
3.29849e-18
1
3.46232e-18
1
3.5718e-18
1
7.00922e-19
4.58455e-19
1
1
9.54935e-19
1
1.21939e-18
1
1.49178e-18
1
1.76903e-18
1
2.04774e-18
1
2.32396e-18
1
2.59289e-18
1
2.84847e-18
1
3.08307e-18
1
3.28719e-18
1
3.44966e-18
1
3.55873e-18
1
7.04272e-19
4.61351e-19
1
1
9.58062e-19
1
1.22185e-18
1
1.49332e-18
1
1.76946e-18
1
2.04681e-18
1
2.32131e-18
1
2.58808e-18
1
2.84105e-18
1
3.07275e-18
1
3.27411e-18
1
3.43456e-18
1
3.5428e-18
1
7.07581e-19
4.64173e-19
1
1
9.61196e-19
1
1.22433e-18
1
1.49486e-18
1
1.76982e-18
1
2.04569e-18
1
2.31834e-18
1
2.58276e-18
1
2.83287e-18
1
3.06127e-18
1
3.25926e-18
1
7.10843e-19
4.66921e-19
1
1
9.64323e-19
1
1.22683e-18
1
1.49638e-18
1
1.77008e-18
1
2.04437e-18
1
2.31501e-18
1
2.5769e-18
1
2.8239e-18
1
3.04867e-18
1
3.24274e-18
1
7.14059e-19
4.69604e-19
1
1
9.67438e-19
1
1.22933e-18
1
1.49787e-18
1
1.77023e-18
1
2.0428e-18
1
2.31127e-18
1
2.57044e-18
1
2.81408e-18
1
3.03489e-18
1
3.22457e-18
1
7.17224e-19
4.7222e-19
1
1
9.70526e-19
1
1.2318e-18
1
1.4993e-18
1
1.77022e-18
1
2.04095e-18
1
2.30707e-18
1
2.56329e-18
1
2.80331e-18
1
3.01983e-18
1
3.20467e-18
1
1
1
0
1
1
1
0
1
1
0
1
0
1
0
1
0
1
0
1
0
1
1
1
1
0
1
0
1
0
0
0
0
0
0
0
0
1
0
1
0
1
0
1
0
1
1
1
1
0
1
0
1
0
0
0
0
0
0
0
0
0
0
0
0
1
1
0
1
0
1
0
0
0
0
0
0
0
0
0
0
0
0
0
0
1
0
1
0
1
0
1
0
1
0
1
0
1
0
1
0
1
1
1
1
0
1
0
1
0
0
0
0
0
0
0
0
0
0
0
0
0
0
0
0
0
0
0
0
0
0
1
1
0
1
0
1
0
0
0
0
0
0
0
0
0
0
0
0
0
0
0
0
0
0
0
0
0
0
1
1
0
1
0
1
0
0
0
0
0
0
0
0
0
0
0
0
0
0
0
0
0
0
0
0
0
0
1
1
0
1
0
1
0
0
0
0
0
0
0
0
0
0
0
0
0
0
0
0
0
0
0
0
0
0
1
1
0
1
0
1
0
0
0
0
0
0
0
0
0
0
0
0
0
0
0
0
0
0
1
1
1
1
1
1
0
1
0
1
0
0
0
0
0
0
0
0
0
0
0
0
0
0
0
0
0
0
1
1
0
1
0
1
0
0
0
0
0
0
0
0
0
0
0
0
0
0
0
0
0
0
1
1
0
1
0
1
0
0
0
0
0
0
0
0
0
0
0
0
0
0
0
0
0
0
1
1
1
1
1
1
1
1
1
1
1
1
1
1
1
1
1
1
1
1
1
1
1
1
1
1
4
2
2
2
4
2
0
0
0
0
2
2
4
2
0
0
0
0
0
0
2
2
0
0
0
0
0
0
0
2
2
2
2
4
2
0
0
0
0
0
0
0
0
0
0
0
2
2
0
0
0
0
0
0
0
0
0
0
0
2
2
0
0
0
0
0
0
0
0
0
0
0
2
2
0
0
0
0
0
0
0
0
0
0
0
2
2
0
0
0
0
0
0
0
0
0
0
2
4
2
0
0
0
0
0
0
0
0
0
2
2
0
0
0
0
0
0
0
0
0
2
2
0
0
0
0
0
0
0
0
0
2
4
2
2
2
2
2
2
2
2
2
4
1	2	3	4	5	6	7	8	
2	9	10	3	6	11	12	7	
9	13	14	10	11	15	16	12	
13	17	18	14	15	19	20	16	
17	21	22	18	19	23	24	20	
4	3	25	26	8	7	27	28	
3	10	29	25	7	12	30	27	
10	14	31	29	12	16	32	30	
14	18	33	31	16	20	34	32	
18	22	35	33	20	24	36	34	
22	37	38	35	24	39	40	36	
37	41	42	38	39	43	44	40	
41	45	46	42	43	47	48	44	
26	25	49	50	28	27	51	52	
25	29	53	49	27	30	54	51	
29	31	55	53	30	32	56	54	
31	33	57	55	32	34	58	56	
33	35	59	57	34	36	60	58	
35	38	61	59	36	40	62	60	
38	42	63	61	40	44	64	62	
42	46	65	63	44	48	66	64	
50	49	67	68	52	51	69	70	
49	53	71	67	51	54	72	69	
53	55	73	71	54	56	74	72	
55	57	75	73	56	58	76	74	
57	59	77	75	58	60	78	76	
59	61	79	77	60	62	80	78	
61	63	81	79	62	64	82	80	
63	65	83	81	64	66	84	82	
65	85	86	83	66	87	88	84	
85	89	90	86	87	91	92	88	
89	93	94	90	91	95	96	92	
93	97	98	94	95	99	100	96	
97	101	102	98	99	103	104	100	
68	67	105	106	70	69	107	108	
67	71	109	105	69	72	110	107	
71	73	111	109	72	74	112	110	
73	75	113	111	74	76	114	112	
75	77	115	113	76	78	116	114	
77	79	117	115	78	80	118	116	
79	81	119	117	80	82	120	118	
81	83	121	119	82	84	122	120	
83	86	123	121	84	88	124	122	
86	90	125	123	88	92	126	124	
90	94	127	125	92	96	128	126	
94	98	129	127	96	100	130	128	
98	102	131	129	100	104	132	130	
106	105	133	134	108	107	135	136	
105	109	137	133	107	110	138	135	
109	111	139	137	110	112	140	138	
111	113	141	139	112	114	142	140	
113	115	143	141	114	116	144	142	
115	117	145	143	116	118	146	144	
117	119	147	145	118	120	148	146	
119	121	149	147	120	122	150	148	
121	123	151	149	122	124	152	150	
123	125	153	151	124	126	154	152	
125	127	155	153	126	128	156	154	
127	129	157	155	128	130	158	156	
129	131	159	157	130	132	160	158	
134	133	161	162	136	135	163	164	
133	137	165	161	135	138	166	163	
137	139	167	165	138	140	168	166	
139	141	169	167	140	142	170	168	
141	143	171	169	142	144	172	170	
143	145	173	171	144	146	174	172	
145	147	175	173	146	148	176	174	
147	149	177	175	148	150	178	176	
149	151	179	177	150	152	180	178	
151	153	181	179	152	154	182	180	
153	155	183	181	154	156	184	182	
155	157	185	183	156	158	186	184	
157	159	187	185	158	160	188	186	
162	161	189	190	164	163	191	192	
161	165	193	189	163	166	194	191	
165	167	195	193	166	168	196	194	
167	169	197	195	168	170	198	196	
169	171	199	197	170	172	200	198	
171	173	201	199	172	174	202	200	
173	175	203	201	174	176	204	202	
175	177	205	203	176	178	206	204	
177	179	207	205	178	180	208	206	
179	181	209	207	180	182	210	208	
181	183	211	209	182	184	212	210	
183	185	213	211	184	186	214	212	
185	187	215	213	186	188	216	214	
190	189	217	218	192	191	219	220	
189	193	221	217	191	194	222	219	
193	195	223	221	194	196	224	222	
195	197	225	223	196	198	226	224	
197	199	227	225	198	200	228	226	
199	201	229	227	200	202	230	228	
201	203	231	229	202	204	232	230	
203	205	233	231	204	206	234	232	
205	207	235	233	206	208	236	234	
207	209	237	235	208	210	238	236	
209	211	239	237	210	212	240	238	
211	213	241	239	212	214	242	240	
213	215	243	241	214	216	244	242	
218	217	245	246	220	219	247	248	
217	221	249	245	219	222	250	247	
221	223	251	249	222	224	252	250	
223	225	253	251	224	226	254	252	
225	227	255	253	226	228	256	254	
227	229	257	255	228	230	258	256	
229	231	259	257	230	232	260	258	
231	233	261	259	232	234	262	260	
233	235	263	261	234	236	264	262	
235	237	265	263	236	238	266	264	
237	239	267	265	238	240	268	266	
246	245	269	270	248	247	271	272	
245	249	273	269	247	250	274	271	
249	251	275	273	250	252	276	274	
251	253	277	275	252	254	278	276	
253	255	279	277	254	256	280	278	
255	257	281	279	256	258	282	280	
257	259	283	281	258	260	284	282	
259	261	285	283	260	262	286	284	
261	263	287	285	262	264	288	286	
263	265	289	287	264	266	290	288	
265	267	291	289	266	268	292	290	
270	269	293	294	272	271	295	296	
269	273	297	293	271	274	298	295	
273	275	299	297	274	276	300	298	
275	277	301	299	276	278	302	300	
277	279	303	301	278	280	304	302	
279	281	305	303	280	282	306	304	
281	283	307	305	282	284	308	306	
283	285	309	307	284	286	310	308	
285	287	311	309	286	288	312	310	
287	289	313	311	288	290	314	312	
289	291	315	313	290	292	316	314	
294	293	317	318	296	295	319	320	
293	297	321	317	295	298	322	319	
297	299	323	321	298	300	324	322	
299	301	325	323	300	302	326	324	
301	303	327	325	302	304	328	326	
303	305	329	327	304	306	330	328	
305	307	331	329	306	308	332	330	
307	309	333	331	308	310	334	332	
309	311	335	333	310	312	336	334	
311	313	337	335	312	314	338	336	
313	315	339	337	314	316	340	338	
ZONE T="element1"
Nodes=360, Elements=151, ZONETYPE=FETETRAHEDRON
DATAPACKING=BLOCK
VARLOCATION=([5]=CELLCENTERED)
0.0309168
0.0209461
0.0207164
0.030731
0.0309168
0.0209461
0.0207164
0.030731
0.0132729
0.0129871
0.0132729
0.0129871
0.00768992
0.00733564
0.00768992
0.00733564
0.00389463
0.00347167
0.00389463
0.00347167
0.00154733
0.00106257
0.00154733
0.00106257
0.000341529
-0.000191758
0.000341529
-0.000191758
1.10616e-07
-0.000554888
1.10616e-07
-0.000554888
0.000341529
-0.000191758
0.000341529
-0.000191758
0.00154733
0.00106257
0.00154733
0.00106257
0.00389463
0.00347167
0.00389463
0.00347167
0.00768992
0.00733564
0.00768992
0.00733564
0.0132729
0.0129871
0.0132729
0.0129871
0.0209461
0.0207165
0.0209461
0.0207165
0.0309168
0.030731
0.0309168
0.030731
0.0204392
0.0305097
0.0204392
0.0305097
0.0126378
0.0126378
0.00689672
0.00689672
0.00293907
0.00293907
0.000441608
0.000441608
-0.000885256
-0.000885256
-0.00128138
-0.00128138
-0.000885256
-0.000885256
0.000441608
0.000441608
0.00293907
0.00293907
0.00689672
0.00689672
0.0126378
0.0126378
0.0204392
0.0204392
0.0305097
0.0305097
0.020104
0.0302453
0.020104
0.0302453
0.012212
0.012212
0.0063568
0.0063568
0.00227698
0.00227698
-0.000337816
-0.000337816
-0.00175963
-0.00175963
-0.00219696
-0.00219696
-0.00175963
-0.00175963
-0.000337816
-0.000337816
0.00227698
0.00227698
0.0063568
0.0063568
0.012212
0.012212
0.020104
0.020104
0.0302453
0.0302453
0.0196988
0.0299289
0.0196988
0.0299289
0.0116935
0.0116935
0.005696
0.005696
0.00146164
0.00146164
-0.00130166
-0.00130166
-0.00283902
-0.00283902
-0.00332309
-0.00332309
-0.00283902
-0.00283902
-0.00130166
-0.00130166
0.00146164
0.00146164
0.005696
0.005696
0.0116935
0.0116935
0.0196988
0.0196988
0.0299289
0.0299289
0.0192097
0.0295504
0.0192097
0.0295504
0.0110643
0.0110643
0.00489207
0.00489207
0.000467307
0.000467307
-0.00247667
-0.00247667
-0.00414769
-0.00414769
-0.00468185
-0.00468185
-0.00414769
-0.00414769
-0.00247667
-0.00247667
0.000467306
0.000467306
0.00489206
0.00489206
0.0110643
0.0110643
0.0192097
0.0192097
0.0295504
0.0295504
-0.00571117
-0.00389071
-0.00571117
-0.00389071
-0.00629759
-0.00629759
-0.00571117
-0.00571117
-0.00389071
-0.00389071
-0.00073391
-0.00073391
0.00391999
0.00391999
0.0103035
0.0103035
0.0186208
0.0186208
0.0290985
0.0290985
-0.0075576
-0.00557355
-0.0075576
-0.00557355
-0.0081983
-0.0081983
-0.0075576
-0.0075576
-0.00557355
-0.00557355
-0.0021726
-0.0021726
0.00275144
0.00275144
0.00938717
0.00938717
0.0179139
0.0179139
0.0285601
0.0285601
-0.00971911
-0.0075582
-0.00971911
-0.0075582
-0.0104166
-0.0104166
-0.00971911
-0.00971911
-0.0075582
-0.0075582
-0.00388302
-0.00388302
0.00135384
0.00135384
0.00828768
0.00828768
0.0170679
0.0170679
0.0279207
0.0279207
-0.0122331
-0.0098823
-0.0122331
-0.0098823
-0.0129909
-0.0129909
-0.0122331
-0.0122331
-0.0098823
-0.0098823
-0.00590421
-0.00590421
-0.000310801
-0.000310801
0.00697217
0.00697217
0.0160578
0.0160578
0.0271632
0.0271632
-0.0151437
-0.0125896
-0.0151437
-0.0125896
-0.0159658
-0.0159658
-0.0151437
-0.0151437
-0.0125896
-0.0125896
-0.00828134
-0.00828134
-0.0022872
-0.0022872
0.00540115
0.00540115
0.0148531
0.0148531
0.0262673
0.0262673
-0.0185025
-0.0157315
-0.0185025
-0.0157315
-0.019394
-0.019394
-0.0185025
-0.0185025
-0.0157315
-0.0157315
-0.0110669
-0.0110669
-0.00462797
-0.00462797
0.00352669
0.00352669
0.0134158
0.0134158
0.0252071
0.0252071
-0.0223709
-0.0193686
-0.0223709
-0.0193686
-0.0233372
-0.0233372
-0.0223709
-0.0223709
-0.0193686
-0.0193686
-0.0143221
-0.0143221
-0.00739476
-0.00739476
0.00129077
0.00129077
0.0116971
0.0116971
0.0239484
0.0239484
-0.0268209
-0.0235722
-0.0268209
-0.0235722
-0.0278677
-0.0278677
-0.0268209
-0.0268209
-0.0235722
-0.0235722
-0.0181186
-0.0181186
-0.0106594
-0.0106594
-0.00137612
-0.00137612
0.0096356
0.0096356
0.0224447
0.0224447
-0.032135
-0.0285968
-0.032135
-0.0285968
-0.0332775
-0.0332775
-0.032135
-0.032135
-0.0285968
-0.0285968
-0.0226694
-0.0226694
-0.0145913
-0.0145913
-0.00460372
-0.00460372
0.00713517
0.00713517
0.0206299
0.0206299
-0.0287912
-0.0241017
-0.0245594
-0.0292639
-0.0287912
-0.0241017
-0.0245594
-0.0292639
-0.0195243
-0.0199533
-0.0195243
-0.0199533
-0.014952
-0.0153346
-0.014952
-0.0153346
-0.0105511
-0.0108701
-0.0105511
-0.0108701
-0.00651627
-0.0067537
-0.00651627
-0.0067537
-0.00297446
-0.00310958
-0.00297446
-0.00310958
1.85615e-16
-2.93649e-12
1.85615e-16
-2.93649e-12
0.00297446
0.00310958
0.00297446
0.00310958
0.00651627
0.0067537
0.00651627
0.0067537
0.0105511
0.0108701
0.0105511
0.0108701
0.014952
0.0153346
0.014952
0.0153346
0.0195243
0.0199533
0.0195243
0.0199533
0.0241017
0.0245594
0.0241017
0.0245594
0.0287912
0.0292639
0.0287912
0.0292639
-0.0251275
-0.0298453
-0.0251275
-0.0298453
-0.020491
-0.020491
-0.0158209
-0.0158209
-0.0112832
-0.0112832
-0.0070682
-0.0070682
-0.00329217
-0.00329217
-8.28783e-12
-8.28783e-12
0.00329217
0.00329217
0.0070682
0.0070682
0.0112832
0.0112832
0.0158209
0.0158209
0.020491
0.020491
0.0251275
0.0251275
0.0298453
0.0298453
-0.0258309
-0.0305597
-0.0258309
-0.0305597
-0.0211619
-0.0211619
-0.0164346
-0.0164346
-0.0118122
-0.0118122
-0.00747698
-0.00747698
-0.00353104
-0.00353104
-1.73899e-11
-1.73899e-11
0.00353104
0.00353104
0.00747698
0.00747698
0.0118122
0.0118122
0.0164346
0.0164346
0.0211619
0.0211619
0.0258309
0.0258309
0.0305597
0.0305597
-0.0266996
-0.0314366
-0.0266996
-0.0314366
-0.0219954
-0.0219954
-0.0172034
-0.0172034
-0.0124813
-0.0124813
-0.00799643
-0.00799643
-0.00383162
-0.00383162
-3.12933e-11
-3.12933e-11
0.00383162
0.00383162
0.00799643
0.00799643
0.0124813
0.0124813
0.0172034
0.0172034
0.0219954
0.0219954
0.0266996
0.0266996
0.0314366
0.0314366
-0.0277697
-0.0325119
-0.0277697
-0.0325119
-0.0230262
-0.0230262
-0.0181594
-0.0181594
-0.0133162
-0.0133162
-0.0086414
-0.0086414
-0.0041976
-0.0041976
-5.14766e-11
-5.14766e-11
0.0041976
0.0041976
0.0086414
0.0086414
0.0133162
0.0133162
0.0181594
0.0181594
0.0230262
0.0230262
0.0277697
0.0277697
0.0325119
0.0325119
-0.00463159
-0.00942427
-0.00463159
-0.00942427
-8.01097e-11
-8.01097e-11
0.00463159
0.00463159
0.00942427
0.00942427
0.0143426
0.0143426
0.019338
0.019338
0.0242948
0.0242948
0.0290841
0.0290841
0.0338287
0.0338287
-0.00513592
-0.0103549
-0.00513592
-0.0103549
-1.19938e-10
-1.19938e-10
0.00513592
0.00513592
0.0103549
0.0103549
0.0155841
0.0155841
0.0207763
0.0207763
0.025847
0.025847
0.0306927
0.0306927
0.0354386
0.0354386
-0.00571341
-0.0114416
-0.00571341
-0.0114416
-1.73705e-10
-1.73705e-10
0.00571341
0.00571341
0.0114416
0.0114416
0.0170617
0.0170617
0.0225112
0.0225112
0.0277325
0.0277325
0.0326532
0.0326532
0.0374029
0.0374029
-0.00636783
-0.0126923
-0.00636783
-0.0126923
-2.43384e-10
-2.43384e-10
0.00636783
0.00636783
0.0126923
0.0126923
0.0187936
0.0187936
0.0245781
0.0245781
0.0300034
0.0300034
0.0350294
0.0350294
0.0397927
0.0397927
-0.00710417
-0.014116
-0.00710417
-0.014116
-3.29569e-10
-3.29569e-10
0.00710416
0.00710416
0.014116
0.014116
0.0207968
0.0207968
0.0270094
0.0270094
0.0327116
0.0327116
0.0378901
0.0378901
0.042689
0.042689
-0.00792864
-0.0157232
-0.00792864
-0.0157232
-4.31275e-10
-4.31275e-10
0.00792864
0.00792864
0.0157232
0.0157232
0.0230885
0.0230885
0.0298355
0.0298355
0.0359073
0.0359073
0.0413064
0.0413064
0.0461805
0.0461805
-0.00884876
-0.0175273
-0.00884876
-0.0175273
-5.46132e-10
-5.46132e-10
0.00884876
0.00884876
0.0175273
0.0175273
0.0256879
0.0256879
0.0330866
0.0330866
0.0396387
0.0396387
0.0453488
0.0453488
0.0503613
0.0503613
-0.00987335
-0.0195442
-0.00987335
-0.0195442
-6.70879e-10
-6.70879e-10
0.00987335
0.00987335
0.0195442
0.0195442
0.0286173
0.0286173
0.0367942
0.0367942
0.0439531
0.0439531
0.0500871
0.0500871
0.0553274
0.0553274
-0.0110725
-0.021906
-0.0110725
-0.021906
-8.14118e-10
-8.14118e-10
0.0110725
0.0110725
0.021906
0.021906
0.0320542
0.0320542
0.0411604
0.0411604
0.049061
0.049061
0.0557319
0.0557319
0.0612852
0.0612852
-1.76296e-18
-1.4758e-18
-1.47584e-18
-1.76296e-18
1
1
1
1
-1.19552e-18
-1.19552e-18
1
1
-9.15545e-19
-9.15643e-19
1
1
-6.46069e-19
-6.46332e-19
1
1
-3.99007e-19
-3.9946e-19
1
1
-1.82133e-19
-1.82774e-19
1
1
1.12667e-32
-9.84503e-29
1
1
1.82133e-19
1.82774e-19
1
1
3.99007e-19
3.9946e-19
1
1
6.46069e-19
6.46332e-19
1
1
9.15545e-19
9.15643e-19
1
1
1.19552e-18
1.19552e-18
1
1
1.4758e-18
1.47584e-18
1
1
1.76296e-18
1.76296e-18
1
1
-1.47591e-18
-1.76297e-18
1
1
-1.19553e-18
1
-9.15804e-19
1
-6.46751e-19
1
-4.00152e-19
1
-1.83657e-19
1
-2.33247e-28
1
1.83657e-19
1
4.00152e-19
1
6.46751e-19
1
9.15804e-19
1
1.19553e-18
1
1.47591e-18
1
1.76297e-18
1
-1.476e-18
-1.76299e-18
1
1
-1.19556e-18
1
-9.16054e-19
1
-6.47387e-19
1
-4.01189e-19
1
-1.849e-19
1
-4.30625e-28
1
1.849e-19
1
4.01189e-19
1
6.47387e-19
1
9.16054e-19
1
1.19556e-18
1
1.476e-18
1
1.76299e-18
1
-1.47613e-18
-1.76302e-18
1
1
-1.1956e-18
1
-9.16415e-19
1
-6.4828e-19
1
-4.02604e-19
1
-1.86469e-19
1
-6.88263e-28
1
1.86469e-19
1
4.02604e-19
1
6.4828e-19
1
9.16415e-19
1
1.1956e-18
1
1.47613e-18
1
1.76302e-18
1
-1.4763e-18
-1.76306e-18
1
1
-1.19568e-18
1
-9.16916e-19
1
-6.49464e-19
1
-4.04406e-19
1
-1.88315e-19
1
-1.0006e-27
1
1.88315e-19
1
4.04406e-19
1
6.49464e-19
1
9.16916e-19
1
1.19568e-18
1
1.4763e-18
1
1.76306e-18
1
-1.90382e-19
-4.0658e-19
1
1
-1.36055e-27
1
1.90382e-19
1
4.0658e-19
1
6.50966e-19
1
9.17588e-19
1
1.19582e-18
1
1.47652e-18
1
1.76311e-18
1
-1.92615e-19
-4.0909e-19
1
1
-1.76245e-27
1
1.92615e-19
1
4.0909e-19
1
6.52796e-19
1
9.18463e-19
1
1.19605e-18
1
1.47678e-18
1
1.76319e-18
1
-1.94964e-19
-4.1189e-19
1
1
-2.20439e-27
1
1.94964e-19
1
4.11889e-19
1
6.54946e-19
1
9.19567e-19
1
1.1964e-18
1
1.47711e-18
1
1.76329e-18
1
-1.97387e-19
-4.14925e-19
1
1
-2.68895e-27
1
1.97387e-19
1
4.14925e-19
1
6.57394e-19
1
9.20921e-19
1
1.1969e-18
1
1.47752e-18
1
1.76343e-18
1
-1.99848e-19
-4.18146e-19
1
1
-3.22214e-27
1
1.99848e-19
1
4.18146e-19
1
6.6011e-19
1
9.22534e-19
1
1.19759e-18
1
1.47801e-18
1
1.76361e-18
1
-2.02322e-19
-4.21506e-19
1
1
-3.81124e-27
1
2.02322e-19
1
4.21506e-19
1
6.63059e-19
1
9.24403e-19
1
1.19848e-18
1
1.47861e-18
1
1.76384e-18
1
-2.04788e-19
-4.24968e-19
1
1
-4.46235e-27
1
2.04788e-19
1
4.24968e-19
1
6.66208e-19
1
9.26519e-19
1
1.1996e-18
1
1.47932e-18
1
1.76414e-18
1
-2.07229e-19
-4.28497e-19
1
1
-5.17849e-27
1
2.07229e-19
1
4.28497e-19
1
6.69525e-19
1
9.28869e-19
1
1.20096e-18
1
1.48017e-18
1
1.76449e-18
1
-2.09783e-19
-4.32229e-19
1
1
-5.95547e-27
1
2.09783e-19
1
4.32229e-19
1
6.73081e-19
1
9.31446e-19
1
1.20249e-18
1
1.48114e-18
1
1.76491e-18
1
1
0
0
1
1
0
0
1
0
0
0
0
0
0
0
0
0
0
0
0
0
0
0
0
0
0
0
0
0
0
0
0
0
0
0
0
0
0
0
0
0
0
0
0
0
0
0
0
0
0
0
0
0
0
0
0
1
1
1
1
0
1
0
1
0
0
0
0
0
0
0
0
0
0
0
0
0
0
0
0
0
0
0
0
0
0
0
0
1
1
0
1
0
1
0
0
0
0
0
0
0
0
0
0
0
0
0
0
0
0
0
0
0
0
0
0
0
0
1
1
0
1
0
1
0
0
0
0
0
0
0
0
0
0
0
0
0
0
0
0
0
0
0
0
0
0
0
0
1
1
1
1
1
1
1
1
1
1
1
1
1
1
0
0
0
0
0
0
0
0
0
0
0
0
0
0
0
0
1
1
0
1
0
1
0
0
0
0
0
0
0
0
0
0
0
0
0
0
1
1
0
1
0
1
0
0
0
0
0
0
0
0
0
0
0
0
0
0
1
1
0
1
0
1
0
0
0
0
0
0
0
0
0
0
0
0
0
0
1
1
0
1
0
1
0
0
0
0
0
0
0
0
0
0
0
0
0
0
1
1
0
1
0
1
0
0
0
0
0
0
0
0
0
0
0
0
0
0
1
1
0
1
0
1
0
0
0
0
0
0
0
0
0
0
0
0
0
0
1
1
0
1
0
1
0
0
0
0
0
0
0
0
0
0
0
0
0
0
1
1
0
1
0
1
0
0
0
0
0
0
0
0
0
0
0
0
0
0
1
1
1
1
1
1
1
1
1
1
1
1
1
1
1
1
1
1
1
1
1
1
2
0
0
0
0
0
0
0
0
0
0
0
0
2
2
0
0
0
0
0
0
0
0
0
0
0
0
2
2
0
0
0
0
0
0
0
0
0
0
0
0
2
2
0
0
0
0
0
0
0
0
0
0
0
0
2
4
2
2
2
2
0
0
0
0
0
0
0
0
2
2
0
0
0
0
0
0
0
2
2
0
0
0
0
0
0
0
2
2
0
0
0
0
0
0
0
2
2
0
0
0
0
0
0
0
2
2
0
0
0
0
0
0
0
2
2
0
0
0
0
0
0
0
2
2
0
0
0
0
0
0
0
2
2
0
0
0
0
0
0
0
2
4
2
2
2
2
2
2
2
4
1	2	3	4	5	6	7	8	
2	9	10	3	6	11	12	7	
9	13	14	10	11	15	16	12	
13	17	18	14	15	19	20	16	
17	21	22	18	19	23	24	20	
21	25	26	22	23	27	28	24	
25	29	30	26	27	31	32	28	
29	33	34	30	31	35	36	32	
33	37	38	34	35	39	40	36	
37	41	42	38	39	43	44	40	
41	45	46	42	43	47	48	44	
45	49	50	46	47	51	52	48	
49	53	54	50	51	55	56	52	
53	57	58	54	55	59	60	56	
4	3	61	62	8	7	63	64	
3	10	65	61	7	12	66	63	
10	14	67	65	12	16	68	66	
14	18	69	67	16	20	70	68	
18	22	71	69	20	24	72	70	
22	26	73	71	24	28	74	72	
26	30	75	73	28	32	76	74	
30	34	77	75	32	36	78	76	
34	38	79	77	36	40	80	78	
38	42	81	79	40	44	82	80	
42	46	83	81	44	48	84	82	
46	50	85	83	48	52	86	84	
50	54	87	85	52	56	88	86	
54	58	89	87	56	60	90	88	
62	61	91	92	64	63	93	94	
61	65	95	91	63	66	96	93	
65	67	97	95	66	68	98	96	
67	69	99	97	68	70	100	98	
69	71	101	99	70	72	102	100	
71	73	103	101	72	74	104	102	
73	75	105	103	74	76	106	104	
75	77	107	105	76	78	108	106	
77	79	109	107	78	80	110	108	
79	81	111	109	80	82	112	110	
81	83	113	111	82	84	114	112	
83	85	115	113	84	86	116	114	
85	87	117	115	86	88	118	116	
87	89	119	117	88	90	120	118	
92	91	121	122	94	93	123	124	
91	95	125	121	93	96	126	123	
95	97	127	125	96	98	128	126	
97	99	129	127	98	100	130	128	
99	101	131	129	100	102	132	130	
101	103	133	131	102	104	134	132	
103	105	135	133	104	106	136	134	
105	107	137	135	106	108	138	136	
107	109	139	137	108	110	140	138	
109	111	141	139	110	112	142	140	
111	113	143	141	112	114	144	142	
113	115	145	143	114	116	146	144	
115	117	147	145	116	118	148	146	
117	119	149	147	118	120	150	148	
122	121	151	152	124	123	153	154	
121	125	155	151	123	126	156	153	
125	127	157	155	126	128	158	156	
127	129	159	157	128	130	160	158	
129	131	161	159	130	132	162	160	
131	133	163	161	132	134	164	162	
133	135	165	163	134	136	166	164	
135	137	167	165	136	138	168	166	
137	139	169	167	138	140	170	168	
139	141	171	169	140	142	172	170	
141	143	173	171	142	144	174	172	
143	145	175	173	144	146	176	174	
145	147	177	175	146	148	178	176	
147	149	179	177	148	150	180	178	
161	163	181	182	162	164	183	184	
163	165	185	181	164	166	186	183	
165	167	187	185	166	168	188	186	
167	169	189	187	168	170	190	188	
169	171	191	189	170	172	192	190	
171	173	193	191	172	174	194	192	
173	175	195	193	174	176	196	194	
175	177	197	195	176	178	198	196	
177	179	199	197	178	180	200	198	
182	181	201	202	184	183	203	204	
181	185	205	201	183	186	206	203	
185	187	207	205	186	188	208	206	
187	189	209	207	188	190	210	208	
189	191	211	209	190	192	212	210	
191	193	213	211	192	194	214	212	
193	195	215	213	194	196	216	214	
195	197	217	215	196	198	218	216	
197	199	219	217	198	200	220	218	
202	201	221	222	204	203	223	224	
201	205	225	221	203	206	226	223	
205	207	227	225	206	208	228	226	
207	209	229	227	208	210	230	228	
209	211	231	229	210	212	232	230	
211	213	233	231	212	214	234	232	
213	215	235	233	214	216	236	234	
215	217	237	235	216	218	238	236	
217	219	239	237	218	220	240	238	
222	221	241	242	224	223	243	244	
221	225	245	241	223	226	246	243	
225	227	247	245	226	228	248	246	
227	229	249	247	228	230	250	248	
229	231	251	249	230	232	252	250	
231	233	253	251	232	234	254	252	
233	235	255	253	234	236	256	254	
235	237	257	255	236	238	258	256	
237	239	259	257	238	240	260	258	
242	241	261	262	244	243	263	264	
241	245	265	261	243	246	266	263	
245	247	267	265	246	248	268	266	
247	249	269	267	248	250	270	268	
249	251	271	269	250	252	272	270	
251	253	273	271	252	254	274	272	
253	255	275	273	254	256	276	274	
255	257	277	275	256	258	278	276	
257	259	279	277	258	260	280	278	
262	261	281	282	264	263	283	284	
261	265	285	281	263	266	286	283	
265	267	287	285	266	268	288	286	
267	269	289	287	268	270	290	288	
269	271	291	289	270	272	292	290	
271	273	293	291	272	274	294	292	
273	275	295	293	274	276	296	294	
275	277	297	295	276	278	298	296	
277	279	299	297	278	280	300	298	
282	281	301	302	284	283	303	304	
281	285	305	301	283	286	306	303	
285	287	307	305	286	288	308	306	
287	289	309	307	288	290	310	308	
289	291	311	309	290	292	312	310	
291	293	313	311	292	294	314	312	
293	295	315	313	294	296	316	314	
295	297	317	315	296	298	318	316	